+ 0 0 1 tcp 40 ------- 0 0.0 2.0 0 0
- 0 0 1 tcp 40 ------- 0 0.0 2.0 0 0
r 0.001032 0 1 tcp 40 ------- 0 0.0 2.0 0 0
+ 0.001032 1 3 tcp 40 ------- 0 0.0 2.0 0 0
- 0.001032 1 3 tcp 40 ------- 0 0.0 2.0 0 0
r 0.005352 1 3 tcp 40 ------- 0 0.0 2.0 0 0
+ 0.005352 3 2 tcp 40 ------- 0 0.0 2.0 0 0
- 0.005352 3 2 tcp 40 ------- 0 0.0 2.0 0 0
r 0.006384 3 2 tcp 40 ------- 0 0.0 2.0 0 0
+ 0.006384 2 3 ack 40 ------- 0 2.0 0.0 0 1
- 0.006384 2 3 ack 40 ------- 0 2.0 0.0 0 1
r 0.007416 2 3 ack 40 ------- 0 2.0 0.0 0 1
+ 0.007416 3 1 ack 40 ------- 0 2.0 0.0 0 1
- 0.007416 3 1 ack 40 ------- 0 2.0 0.0 0 1
r 0.011736 3 1 ack 40 ------- 0 2.0 0.0 0 1
+ 0.011736 1 0 ack 40 ------- 0 2.0 0.0 0 1
- 0.011736 1 0 ack 40 ------- 0 2.0 0.0 0 1
r 0.012768 1 0 ack 40 ------- 0 2.0 0.0 0 1
+ 0.012768 0 1 tcp 1040 ------- 0 0.0 2.0 1 2
- 0.012768 0 1 tcp 1040 ------- 0 0.0 2.0 1 2
+ 0.012768 0 1 tcp 1040 ------- 0 0.0 2.0 2 3
- 0.0136 0 1 tcp 1040 ------- 0 0.0 2.0 2 3
r 0.0146 0 1 tcp 1040 ------- 0 0.0 2.0 1 2
+ 0.0146 1 3 tcp 1040 ------- 0 0.0 2.0 1 2
- 0.0146 1 3 tcp 1040 ------- 0 0.0 2.0 1 2
r 0.015432 0 1 tcp 1040 ------- 0 0.0 2.0 2 3
+ 0.015432 1 3 tcp 1040 ------- 0 0.0 2.0 2 3
- 0.02292 1 3 tcp 1040 ------- 0 0.0 2.0 2 3
r 0.02692 1 3 tcp 1040 ------- 0 0.0 2.0 1 2
+ 0.02692 3 2 tcp 1040 ------- 0 0.0 2.0 1 2
- 0.02692 3 2 tcp 1040 ------- 0 0.0 2.0 1 2
r 0.028752 3 2 tcp 1040 ------- 0 0.0 2.0 1 2
+ 0.028752 2 3 ack 40 ------- 0 2.0 0.0 1 4
- 0.028752 2 3 ack 40 ------- 0 2.0 0.0 1 4
r 0.029784 2 3 ack 40 ------- 0 2.0 0.0 1 4
+ 0.029784 3 1 ack 40 ------- 0 2.0 0.0 1 4
- 0.029784 3 1 ack 40 ------- 0 2.0 0.0 1 4
r 0.034104 3 1 ack 40 ------- 0 2.0 0.0 1 4
+ 0.034104 1 0 ack 40 ------- 0 2.0 0.0 1 4
- 0.034104 1 0 ack 40 ------- 0 2.0 0.0 1 4
r 0.035136 1 0 ack 40 ------- 0 2.0 0.0 1 4
+ 0.035136 0 1 tcp 1040 ------- 0 0.0 2.0 3 5
- 0.035136 0 1 tcp 1040 ------- 0 0.0 2.0 3 5
+ 0.035136 0 1 tcp 1040 ------- 0 0.0 2.0 4 6
r 0.03524 1 3 tcp 1040 ------- 0 0.0 2.0 2 3
+ 0.03524 3 2 tcp 1040 ------- 0 0.0 2.0 2 3
- 0.03524 3 2 tcp 1040 ------- 0 0.0 2.0 2 3
- 0.035968 0 1 tcp 1040 ------- 0 0.0 2.0 4 6
r 0.036968 0 1 tcp 1040 ------- 0 0.0 2.0 3 5
+ 0.036968 1 3 tcp 1040 ------- 0 0.0 2.0 3 5
- 0.036968 1 3 tcp 1040 ------- 0 0.0 2.0 3 5
r 0.037072 3 2 tcp 1040 ------- 0 0.0 2.0 2 3
+ 0.037072 2 3 ack 40 ------- 0 2.0 0.0 2 7
- 0.037072 2 3 ack 40 ------- 0 2.0 0.0 2 7
r 0.0378 0 1 tcp 1040 ------- 0 0.0 2.0 4 6
+ 0.0378 1 3 tcp 1040 ------- 0 0.0 2.0 4 6
r 0.038104 2 3 ack 40 ------- 0 2.0 0.0 2 7
+ 0.038104 3 1 ack 40 ------- 0 2.0 0.0 2 7
- 0.038104 3 1 ack 40 ------- 0 2.0 0.0 2 7
r 0.042424 3 1 ack 40 ------- 0 2.0 0.0 2 7
+ 0.042424 1 0 ack 40 ------- 0 2.0 0.0 2 7
- 0.042424 1 0 ack 40 ------- 0 2.0 0.0 2 7
r 0.043456 1 0 ack 40 ------- 0 2.0 0.0 2 7
+ 0.043456 0 1 tcp 1040 ------- 0 0.0 2.0 5 8
- 0.043456 0 1 tcp 1040 ------- 0 0.0 2.0 5 8
+ 0.043456 0 1 tcp 1040 ------- 0 0.0 2.0 6 9
- 0.044288 0 1 tcp 1040 ------- 0 0.0 2.0 6 9
- 0.045288 1 3 tcp 1040 ------- 0 0.0 2.0 4 6
r 0.045288 0 1 tcp 1040 ------- 0 0.0 2.0 5 8
+ 0.045288 1 3 tcp 1040 ------- 0 0.0 2.0 5 8
r 0.04612 0 1 tcp 1040 ------- 0 0.0 2.0 6 9
+ 0.04612 1 3 tcp 1040 ------- 0 0.0 2.0 6 9
r 0.049288 1 3 tcp 1040 ------- 0 0.0 2.0 3 5
+ 0.049288 3 2 tcp 1040 ------- 0 0.0 2.0 3 5
- 0.049288 3 2 tcp 1040 ------- 0 0.0 2.0 3 5
r 0.05112 3 2 tcp 1040 ------- 0 0.0 2.0 3 5
+ 0.05112 2 3 ack 40 ------- 0 2.0 0.0 3 10
- 0.05112 2 3 ack 40 ------- 0 2.0 0.0 3 10
r 0.052152 2 3 ack 40 ------- 0 2.0 0.0 3 10
+ 0.052152 3 1 ack 40 ------- 0 2.0 0.0 3 10
- 0.052152 3 1 ack 40 ------- 0 2.0 0.0 3 10
- 0.053608 1 3 tcp 1040 ------- 0 0.0 2.0 5 8
r 0.056472 3 1 ack 40 ------- 0 2.0 0.0 3 10
+ 0.056472 1 0 ack 40 ------- 0 2.0 0.0 3 10
- 0.056472 1 0 ack 40 ------- 0 2.0 0.0 3 10
r 0.057504 1 0 ack 40 ------- 0 2.0 0.0 3 10
+ 0.057504 0 1 tcp 1040 ------- 0 0.0 2.0 7 11
- 0.057504 0 1 tcp 1040 ------- 0 0.0 2.0 7 11
+ 0.057504 0 1 tcp 1040 ------- 0 0.0 2.0 8 12
r 0.057608 1 3 tcp 1040 ------- 0 0.0 2.0 4 6
+ 0.057608 3 2 tcp 1040 ------- 0 0.0 2.0 4 6
- 0.057608 3 2 tcp 1040 ------- 0 0.0 2.0 4 6
- 0.058336 0 1 tcp 1040 ------- 0 0.0 2.0 8 12
r 0.059336 0 1 tcp 1040 ------- 0 0.0 2.0 7 11
+ 0.059336 1 3 tcp 1040 ------- 0 0.0 2.0 7 11
r 0.05944 3 2 tcp 1040 ------- 0 0.0 2.0 4 6
+ 0.05944 2 3 ack 40 ------- 0 2.0 0.0 4 13
- 0.05944 2 3 ack 40 ------- 0 2.0 0.0 4 13
r 0.060168 0 1 tcp 1040 ------- 0 0.0 2.0 8 12
+ 0.060168 1 3 tcp 1040 ------- 0 0.0 2.0 8 12
r 0.060472 2 3 ack 40 ------- 0 2.0 0.0 4 13
+ 0.060472 3 1 ack 40 ------- 0 2.0 0.0 4 13
- 0.060472 3 1 ack 40 ------- 0 2.0 0.0 4 13
- 0.061928 1 3 tcp 1040 ------- 0 0.0 2.0 6 9
r 0.064792 3 1 ack 40 ------- 0 2.0 0.0 4 13
+ 0.064792 1 0 ack 40 ------- 0 2.0 0.0 4 13
- 0.064792 1 0 ack 40 ------- 0 2.0 0.0 4 13
r 0.065824 1 0 ack 40 ------- 0 2.0 0.0 4 13
+ 0.065824 0 1 tcp 1040 ------- 0 0.0 2.0 9 14
- 0.065824 0 1 tcp 1040 ------- 0 0.0 2.0 9 14
+ 0.065824 0 1 tcp 1040 ------- 0 0.0 2.0 10 15
r 0.065928 1 3 tcp 1040 ------- 0 0.0 2.0 5 8
+ 0.065928 3 2 tcp 1040 ------- 0 0.0 2.0 5 8
- 0.065928 3 2 tcp 1040 ------- 0 0.0 2.0 5 8
- 0.066656 0 1 tcp 1040 ------- 0 0.0 2.0 10 15
r 0.067656 0 1 tcp 1040 ------- 0 0.0 2.0 9 14
+ 0.067656 1 3 tcp 1040 ------- 0 0.0 2.0 9 14
r 0.06776 3 2 tcp 1040 ------- 0 0.0 2.0 5 8
+ 0.06776 2 3 ack 40 ------- 0 2.0 0.0 5 16
- 0.06776 2 3 ack 40 ------- 0 2.0 0.0 5 16
r 0.068488 0 1 tcp 1040 ------- 0 0.0 2.0 10 15
+ 0.068488 1 3 tcp 1040 ------- 0 0.0 2.0 10 15
r 0.068792 2 3 ack 40 ------- 0 2.0 0.0 5 16
+ 0.068792 3 1 ack 40 ------- 0 2.0 0.0 5 16
- 0.068792 3 1 ack 40 ------- 0 2.0 0.0 5 16
- 0.070248 1 3 tcp 1040 ------- 0 0.0 2.0 7 11
r 0.073112 3 1 ack 40 ------- 0 2.0 0.0 5 16
+ 0.073112 1 0 ack 40 ------- 0 2.0 0.0 5 16
- 0.073112 1 0 ack 40 ------- 0 2.0 0.0 5 16
r 0.074144 1 0 ack 40 ------- 0 2.0 0.0 5 16
+ 0.074144 0 1 tcp 1040 ------- 0 0.0 2.0 11 17
- 0.074144 0 1 tcp 1040 ------- 0 0.0 2.0 11 17
+ 0.074144 0 1 tcp 1040 ------- 0 0.0 2.0 12 18
r 0.074248 1 3 tcp 1040 ------- 0 0.0 2.0 6 9
+ 0.074248 3 2 tcp 1040 ------- 0 0.0 2.0 6 9
- 0.074248 3 2 tcp 1040 ------- 0 0.0 2.0 6 9
- 0.074976 0 1 tcp 1040 ------- 0 0.0 2.0 12 18
r 0.075976 0 1 tcp 1040 ------- 0 0.0 2.0 11 17
+ 0.075976 1 3 tcp 1040 ------- 0 0.0 2.0 11 17
r 0.07608 3 2 tcp 1040 ------- 0 0.0 2.0 6 9
+ 0.07608 2 3 ack 40 ------- 0 2.0 0.0 6 19
- 0.07608 2 3 ack 40 ------- 0 2.0 0.0 6 19
r 0.076808 0 1 tcp 1040 ------- 0 0.0 2.0 12 18
+ 0.076808 1 3 tcp 1040 ------- 0 0.0 2.0 12 18
r 0.077112 2 3 ack 40 ------- 0 2.0 0.0 6 19
+ 0.077112 3 1 ack 40 ------- 0 2.0 0.0 6 19
- 0.077112 3 1 ack 40 ------- 0 2.0 0.0 6 19
- 0.078568 1 3 tcp 1040 ------- 0 0.0 2.0 8 12
r 0.081432 3 1 ack 40 ------- 0 2.0 0.0 6 19
+ 0.081432 1 0 ack 40 ------- 0 2.0 0.0 6 19
- 0.081432 1 0 ack 40 ------- 0 2.0 0.0 6 19
r 0.082464 1 0 ack 40 ------- 0 2.0 0.0 6 19
+ 0.082464 0 1 tcp 1040 ------- 0 0.0 2.0 13 20
- 0.082464 0 1 tcp 1040 ------- 0 0.0 2.0 13 20
+ 0.082464 0 1 tcp 1040 ------- 0 0.0 2.0 14 21
r 0.082568 1 3 tcp 1040 ------- 0 0.0 2.0 7 11
+ 0.082568 3 2 tcp 1040 ------- 0 0.0 2.0 7 11
- 0.082568 3 2 tcp 1040 ------- 0 0.0 2.0 7 11
- 0.083296 0 1 tcp 1040 ------- 0 0.0 2.0 14 21
r 0.084296 0 1 tcp 1040 ------- 0 0.0 2.0 13 20
+ 0.084296 1 3 tcp 1040 ------- 0 0.0 2.0 13 20
r 0.0844 3 2 tcp 1040 ------- 0 0.0 2.0 7 11
+ 0.0844 2 3 ack 40 ------- 0 2.0 0.0 7 22
- 0.0844 2 3 ack 40 ------- 0 2.0 0.0 7 22
r 0.085128 0 1 tcp 1040 ------- 0 0.0 2.0 14 21
+ 0.085128 1 3 tcp 1040 ------- 0 0.0 2.0 14 21
r 0.085432 2 3 ack 40 ------- 0 2.0 0.0 7 22
+ 0.085432 3 1 ack 40 ------- 0 2.0 0.0 7 22
- 0.085432 3 1 ack 40 ------- 0 2.0 0.0 7 22
- 0.086888 1 3 tcp 1040 ------- 0 0.0 2.0 9 14
r 0.089752 3 1 ack 40 ------- 0 2.0 0.0 7 22
+ 0.089752 1 0 ack 40 ------- 0 2.0 0.0 7 22
- 0.089752 1 0 ack 40 ------- 0 2.0 0.0 7 22
r 0.090784 1 0 ack 40 ------- 0 2.0 0.0 7 22
+ 0.090784 0 1 tcp 1040 ------- 0 0.0 2.0 15 23
- 0.090784 0 1 tcp 1040 ------- 0 0.0 2.0 15 23
+ 0.090784 0 1 tcp 1040 ------- 0 0.0 2.0 16 24
r 0.090888 1 3 tcp 1040 ------- 0 0.0 2.0 8 12
+ 0.090888 3 2 tcp 1040 ------- 0 0.0 2.0 8 12
- 0.090888 3 2 tcp 1040 ------- 0 0.0 2.0 8 12
- 0.091616 0 1 tcp 1040 ------- 0 0.0 2.0 16 24
r 0.092616 0 1 tcp 1040 ------- 0 0.0 2.0 15 23
+ 0.092616 1 3 tcp 1040 ------- 0 0.0 2.0 15 23
r 0.09272 3 2 tcp 1040 ------- 0 0.0 2.0 8 12
+ 0.09272 2 3 ack 40 ------- 0 2.0 0.0 8 25
- 0.09272 2 3 ack 40 ------- 0 2.0 0.0 8 25
r 0.093448 0 1 tcp 1040 ------- 0 0.0 2.0 16 24
+ 0.093448 1 3 tcp 1040 ------- 0 0.0 2.0 16 24
r 0.093752 2 3 ack 40 ------- 0 2.0 0.0 8 25
+ 0.093752 3 1 ack 40 ------- 0 2.0 0.0 8 25
- 0.093752 3 1 ack 40 ------- 0 2.0 0.0 8 25
- 0.095208 1 3 tcp 1040 ------- 0 0.0 2.0 10 15
r 0.098072 3 1 ack 40 ------- 0 2.0 0.0 8 25
+ 0.098072 1 0 ack 40 ------- 0 2.0 0.0 8 25
- 0.098072 1 0 ack 40 ------- 0 2.0 0.0 8 25
r 0.099104 1 0 ack 40 ------- 0 2.0 0.0 8 25
+ 0.099104 0 1 tcp 1040 ------- 0 0.0 2.0 17 26
- 0.099104 0 1 tcp 1040 ------- 0 0.0 2.0 17 26
+ 0.099104 0 1 tcp 1040 ------- 0 0.0 2.0 18 27
r 0.099208 1 3 tcp 1040 ------- 0 0.0 2.0 9 14
+ 0.099208 3 2 tcp 1040 ------- 0 0.0 2.0 9 14
- 0.099208 3 2 tcp 1040 ------- 0 0.0 2.0 9 14
- 0.099936 0 1 tcp 1040 ------- 0 0.0 2.0 18 27
r 0.100936 0 1 tcp 1040 ------- 0 0.0 2.0 17 26
+ 0.100936 1 3 tcp 1040 ------- 0 0.0 2.0 17 26
r 0.10104 3 2 tcp 1040 ------- 0 0.0 2.0 9 14
+ 0.10104 2 3 ack 40 ------- 0 2.0 0.0 9 28
- 0.10104 2 3 ack 40 ------- 0 2.0 0.0 9 28
r 0.101768 0 1 tcp 1040 ------- 0 0.0 2.0 18 27
+ 0.101768 1 3 tcp 1040 ------- 0 0.0 2.0 18 27
r 0.102072 2 3 ack 40 ------- 0 2.0 0.0 9 28
+ 0.102072 3 1 ack 40 ------- 0 2.0 0.0 9 28
- 0.102072 3 1 ack 40 ------- 0 2.0 0.0 9 28
- 0.103528 1 3 tcp 1040 ------- 0 0.0 2.0 11 17
r 0.106392 3 1 ack 40 ------- 0 2.0 0.0 9 28
+ 0.106392 1 0 ack 40 ------- 0 2.0 0.0 9 28
- 0.106392 1 0 ack 40 ------- 0 2.0 0.0 9 28
r 0.107424 1 0 ack 40 ------- 0 2.0 0.0 9 28
+ 0.107424 0 1 tcp 1040 ------- 0 0.0 2.0 19 29
- 0.107424 0 1 tcp 1040 ------- 0 0.0 2.0 19 29
+ 0.107424 0 1 tcp 1040 ------- 0 0.0 2.0 20 30
r 0.107528 1 3 tcp 1040 ------- 0 0.0 2.0 10 15
+ 0.107528 3 2 tcp 1040 ------- 0 0.0 2.0 10 15
- 0.107528 3 2 tcp 1040 ------- 0 0.0 2.0 10 15
- 0.108256 0 1 tcp 1040 ------- 0 0.0 2.0 20 30
r 0.109256 0 1 tcp 1040 ------- 0 0.0 2.0 19 29
+ 0.109256 1 3 tcp 1040 ------- 0 0.0 2.0 19 29
r 0.10936 3 2 tcp 1040 ------- 0 0.0 2.0 10 15
+ 0.10936 2 3 ack 40 ------- 0 2.0 0.0 10 31
- 0.10936 2 3 ack 40 ------- 0 2.0 0.0 10 31
r 0.110088 0 1 tcp 1040 ------- 0 0.0 2.0 20 30
+ 0.110088 1 3 tcp 1040 ------- 0 0.0 2.0 20 30
r 0.110392 2 3 ack 40 ------- 0 2.0 0.0 10 31
+ 0.110392 3 1 ack 40 ------- 0 2.0 0.0 10 31
- 0.110392 3 1 ack 40 ------- 0 2.0 0.0 10 31
- 0.111848 1 3 tcp 1040 ------- 0 0.0 2.0 12 18
r 0.114712 3 1 ack 40 ------- 0 2.0 0.0 10 31
+ 0.114712 1 0 ack 40 ------- 0 2.0 0.0 10 31
- 0.114712 1 0 ack 40 ------- 0 2.0 0.0 10 31
r 0.115744 1 0 ack 40 ------- 0 2.0 0.0 10 31
+ 0.115744 0 1 tcp 1040 ------- 0 0.0 2.0 21 32
- 0.115744 0 1 tcp 1040 ------- 0 0.0 2.0 21 32
+ 0.115744 0 1 tcp 1040 ------- 0 0.0 2.0 22 33
r 0.115848 1 3 tcp 1040 ------- 0 0.0 2.0 11 17
+ 0.115848 3 2 tcp 1040 ------- 0 0.0 2.0 11 17
- 0.115848 3 2 tcp 1040 ------- 0 0.0 2.0 11 17
- 0.116576 0 1 tcp 1040 ------- 0 0.0 2.0 22 33
r 0.117576 0 1 tcp 1040 ------- 0 0.0 2.0 21 32
+ 0.117576 1 3 tcp 1040 ------- 0 0.0 2.0 21 32
r 0.11768 3 2 tcp 1040 ------- 0 0.0 2.0 11 17
+ 0.11768 2 3 ack 40 ------- 0 2.0 0.0 11 34
- 0.11768 2 3 ack 40 ------- 0 2.0 0.0 11 34
r 0.118408 0 1 tcp 1040 ------- 0 0.0 2.0 22 33
+ 0.118408 1 3 tcp 1040 ------- 0 0.0 2.0 22 33
r 0.118712 2 3 ack 40 ------- 0 2.0 0.0 11 34
+ 0.118712 3 1 ack 40 ------- 0 2.0 0.0 11 34
- 0.118712 3 1 ack 40 ------- 0 2.0 0.0 11 34
- 0.120168 1 3 tcp 1040 ------- 0 0.0 2.0 13 20
r 0.123032 3 1 ack 40 ------- 0 2.0 0.0 11 34
+ 0.123032 1 0 ack 40 ------- 0 2.0 0.0 11 34
- 0.123032 1 0 ack 40 ------- 0 2.0 0.0 11 34
r 0.124064 1 0 ack 40 ------- 0 2.0 0.0 11 34
+ 0.124064 0 1 tcp 1040 ------- 0 0.0 2.0 23 35
- 0.124064 0 1 tcp 1040 ------- 0 0.0 2.0 23 35
+ 0.124064 0 1 tcp 1040 ------- 0 0.0 2.0 24 36
r 0.124168 1 3 tcp 1040 ------- 0 0.0 2.0 12 18
+ 0.124168 3 2 tcp 1040 ------- 0 0.0 2.0 12 18
- 0.124168 3 2 tcp 1040 ------- 0 0.0 2.0 12 18
- 0.124896 0 1 tcp 1040 ------- 0 0.0 2.0 24 36
r 0.125896 0 1 tcp 1040 ------- 0 0.0 2.0 23 35
+ 0.125896 1 3 tcp 1040 ------- 0 0.0 2.0 23 35
r 0.126 3 2 tcp 1040 ------- 0 0.0 2.0 12 18
+ 0.126 2 3 ack 40 ------- 0 2.0 0.0 12 37
- 0.126 2 3 ack 40 ------- 0 2.0 0.0 12 37
r 0.126728 0 1 tcp 1040 ------- 0 0.0 2.0 24 36
+ 0.126728 1 3 tcp 1040 ------- 0 0.0 2.0 24 36
r 0.127032 2 3 ack 40 ------- 0 2.0 0.0 12 37
+ 0.127032 3 1 ack 40 ------- 0 2.0 0.0 12 37
- 0.127032 3 1 ack 40 ------- 0 2.0 0.0 12 37
- 0.128488 1 3 tcp 1040 ------- 0 0.0 2.0 14 21
r 0.131352 3 1 ack 40 ------- 0 2.0 0.0 12 37
+ 0.131352 1 0 ack 40 ------- 0 2.0 0.0 12 37
- 0.131352 1 0 ack 40 ------- 0 2.0 0.0 12 37
r 0.132384 1 0 ack 40 ------- 0 2.0 0.0 12 37
+ 0.132384 0 1 tcp 1040 ------- 0 0.0 2.0 25 38
- 0.132384 0 1 tcp 1040 ------- 0 0.0 2.0 25 38
+ 0.132384 0 1 tcp 1040 ------- 0 0.0 2.0 26 39
r 0.132488 1 3 tcp 1040 ------- 0 0.0 2.0 13 20
+ 0.132488 3 2 tcp 1040 ------- 0 0.0 2.0 13 20
- 0.132488 3 2 tcp 1040 ------- 0 0.0 2.0 13 20
- 0.133216 0 1 tcp 1040 ------- 0 0.0 2.0 26 39
r 0.134216 0 1 tcp 1040 ------- 0 0.0 2.0 25 38
+ 0.134216 1 3 tcp 1040 ------- 0 0.0 2.0 25 38
r 0.13432 3 2 tcp 1040 ------- 0 0.0 2.0 13 20
+ 0.13432 2 3 ack 40 ------- 0 2.0 0.0 13 40
- 0.13432 2 3 ack 40 ------- 0 2.0 0.0 13 40
r 0.135048 0 1 tcp 1040 ------- 0 0.0 2.0 26 39
+ 0.135048 1 3 tcp 1040 ------- 0 0.0 2.0 26 39
r 0.135352 2 3 ack 40 ------- 0 2.0 0.0 13 40
+ 0.135352 3 1 ack 40 ------- 0 2.0 0.0 13 40
- 0.135352 3 1 ack 40 ------- 0 2.0 0.0 13 40
- 0.136808 1 3 tcp 1040 ------- 0 0.0 2.0 15 23
r 0.139672 3 1 ack 40 ------- 0 2.0 0.0 13 40
+ 0.139672 1 0 ack 40 ------- 0 2.0 0.0 13 40
- 0.139672 1 0 ack 40 ------- 0 2.0 0.0 13 40
r 0.140704 1 0 ack 40 ------- 0 2.0 0.0 13 40
+ 0.140704 0 1 tcp 1040 ------- 0 0.0 2.0 27 41
- 0.140704 0 1 tcp 1040 ------- 0 0.0 2.0 27 41
+ 0.140704 0 1 tcp 1040 ------- 0 0.0 2.0 28 42
r 0.140808 1 3 tcp 1040 ------- 0 0.0 2.0 14 21
+ 0.140808 3 2 tcp 1040 ------- 0 0.0 2.0 14 21
- 0.140808 3 2 tcp 1040 ------- 0 0.0 2.0 14 21
- 0.141536 0 1 tcp 1040 ------- 0 0.0 2.0 28 42
r 0.142536 0 1 tcp 1040 ------- 0 0.0 2.0 27 41
+ 0.142536 1 3 tcp 1040 ------- 0 0.0 2.0 27 41
r 0.14264 3 2 tcp 1040 ------- 0 0.0 2.0 14 21
+ 0.14264 2 3 ack 40 ------- 0 2.0 0.0 14 43
- 0.14264 2 3 ack 40 ------- 0 2.0 0.0 14 43
r 0.143368 0 1 tcp 1040 ------- 0 0.0 2.0 28 42
+ 0.143368 1 3 tcp 1040 ------- 0 0.0 2.0 28 42
r 0.143672 2 3 ack 40 ------- 0 2.0 0.0 14 43
+ 0.143672 3 1 ack 40 ------- 0 2.0 0.0 14 43
- 0.143672 3 1 ack 40 ------- 0 2.0 0.0 14 43
- 0.145128 1 3 tcp 1040 ------- 0 0.0 2.0 16 24
r 0.147992 3 1 ack 40 ------- 0 2.0 0.0 14 43
+ 0.147992 1 0 ack 40 ------- 0 2.0 0.0 14 43
- 0.147992 1 0 ack 40 ------- 0 2.0 0.0 14 43
r 0.149024 1 0 ack 40 ------- 0 2.0 0.0 14 43
+ 0.149024 0 1 tcp 1040 ------- 0 0.0 2.0 29 44
- 0.149024 0 1 tcp 1040 ------- 0 0.0 2.0 29 44
+ 0.149024 0 1 tcp 1040 ------- 0 0.0 2.0 30 45
r 0.149128 1 3 tcp 1040 ------- 0 0.0 2.0 15 23
+ 0.149128 3 2 tcp 1040 ------- 0 0.0 2.0 15 23
- 0.149128 3 2 tcp 1040 ------- 0 0.0 2.0 15 23
- 0.149856 0 1 tcp 1040 ------- 0 0.0 2.0 30 45
r 0.150856 0 1 tcp 1040 ------- 0 0.0 2.0 29 44
+ 0.150856 1 3 tcp 1040 ------- 0 0.0 2.0 29 44
r 0.15096 3 2 tcp 1040 ------- 0 0.0 2.0 15 23
+ 0.15096 2 3 ack 40 ------- 0 2.0 0.0 15 46
- 0.15096 2 3 ack 40 ------- 0 2.0 0.0 15 46
r 0.151688 0 1 tcp 1040 ------- 0 0.0 2.0 30 45
+ 0.151688 1 3 tcp 1040 ------- 0 0.0 2.0 30 45
r 0.151992 2 3 ack 40 ------- 0 2.0 0.0 15 46
+ 0.151992 3 1 ack 40 ------- 0 2.0 0.0 15 46
- 0.151992 3 1 ack 40 ------- 0 2.0 0.0 15 46
- 0.153448 1 3 tcp 1040 ------- 0 0.0 2.0 17 26
r 0.156312 3 1 ack 40 ------- 0 2.0 0.0 15 46
+ 0.156312 1 0 ack 40 ------- 0 2.0 0.0 15 46
- 0.156312 1 0 ack 40 ------- 0 2.0 0.0 15 46
r 0.157344 1 0 ack 40 ------- 0 2.0 0.0 15 46
+ 0.157344 0 1 tcp 1040 ------- 0 0.0 2.0 31 47
- 0.157344 0 1 tcp 1040 ------- 0 0.0 2.0 31 47
+ 0.157344 0 1 tcp 1040 ------- 0 0.0 2.0 32 48
r 0.157448 1 3 tcp 1040 ------- 0 0.0 2.0 16 24
+ 0.157448 3 2 tcp 1040 ------- 0 0.0 2.0 16 24
- 0.157448 3 2 tcp 1040 ------- 0 0.0 2.0 16 24
- 0.158176 0 1 tcp 1040 ------- 0 0.0 2.0 32 48
r 0.159176 0 1 tcp 1040 ------- 0 0.0 2.0 31 47
+ 0.159176 1 3 tcp 1040 ------- 0 0.0 2.0 31 47
r 0.15928 3 2 tcp 1040 ------- 0 0.0 2.0 16 24
+ 0.15928 2 3 ack 40 ------- 0 2.0 0.0 16 49
- 0.15928 2 3 ack 40 ------- 0 2.0 0.0 16 49
r 0.160008 0 1 tcp 1040 ------- 0 0.0 2.0 32 48
+ 0.160008 1 3 tcp 1040 ------- 0 0.0 2.0 32 48
r 0.160312 2 3 ack 40 ------- 0 2.0 0.0 16 49
+ 0.160312 3 1 ack 40 ------- 0 2.0 0.0 16 49
- 0.160312 3 1 ack 40 ------- 0 2.0 0.0 16 49
- 0.161768 1 3 tcp 1040 ------- 0 0.0 2.0 18 27
r 0.164632 3 1 ack 40 ------- 0 2.0 0.0 16 49
+ 0.164632 1 0 ack 40 ------- 0 2.0 0.0 16 49
- 0.164632 1 0 ack 40 ------- 0 2.0 0.0 16 49
r 0.165664 1 0 ack 40 ------- 0 2.0 0.0 16 49
+ 0.165664 0 1 tcp 1040 ------- 0 0.0 2.0 33 50
- 0.165664 0 1 tcp 1040 ------- 0 0.0 2.0 33 50
+ 0.165664 0 1 tcp 1040 ------- 0 0.0 2.0 34 51
r 0.165768 1 3 tcp 1040 ------- 0 0.0 2.0 17 26
+ 0.165768 3 2 tcp 1040 ------- 0 0.0 2.0 17 26
- 0.165768 3 2 tcp 1040 ------- 0 0.0 2.0 17 26
- 0.166496 0 1 tcp 1040 ------- 0 0.0 2.0 34 51
r 0.167496 0 1 tcp 1040 ------- 0 0.0 2.0 33 50
+ 0.167496 1 3 tcp 1040 ------- 0 0.0 2.0 33 50
r 0.1676 3 2 tcp 1040 ------- 0 0.0 2.0 17 26
+ 0.1676 2 3 ack 40 ------- 0 2.0 0.0 17 52
- 0.1676 2 3 ack 40 ------- 0 2.0 0.0 17 52
r 0.168328 0 1 tcp 1040 ------- 0 0.0 2.0 34 51
+ 0.168328 1 3 tcp 1040 ------- 0 0.0 2.0 34 51
r 0.168632 2 3 ack 40 ------- 0 2.0 0.0 17 52
+ 0.168632 3 1 ack 40 ------- 0 2.0 0.0 17 52
- 0.168632 3 1 ack 40 ------- 0 2.0 0.0 17 52
- 0.170088 1 3 tcp 1040 ------- 0 0.0 2.0 19 29
r 0.172952 3 1 ack 40 ------- 0 2.0 0.0 17 52
+ 0.172952 1 0 ack 40 ------- 0 2.0 0.0 17 52
- 0.172952 1 0 ack 40 ------- 0 2.0 0.0 17 52
r 0.173984 1 0 ack 40 ------- 0 2.0 0.0 17 52
+ 0.173984 0 1 tcp 1040 ------- 0 0.0 2.0 35 53
- 0.173984 0 1 tcp 1040 ------- 0 0.0 2.0 35 53
+ 0.173984 0 1 tcp 1040 ------- 0 0.0 2.0 36 54
r 0.174088 1 3 tcp 1040 ------- 0 0.0 2.0 18 27
+ 0.174088 3 2 tcp 1040 ------- 0 0.0 2.0 18 27
- 0.174088 3 2 tcp 1040 ------- 0 0.0 2.0 18 27
- 0.174816 0 1 tcp 1040 ------- 0 0.0 2.0 36 54
r 0.175816 0 1 tcp 1040 ------- 0 0.0 2.0 35 53
+ 0.175816 1 3 tcp 1040 ------- 0 0.0 2.0 35 53
r 0.17592 3 2 tcp 1040 ------- 0 0.0 2.0 18 27
+ 0.17592 2 3 ack 40 ------- 0 2.0 0.0 18 55
- 0.17592 2 3 ack 40 ------- 0 2.0 0.0 18 55
r 0.176648 0 1 tcp 1040 ------- 0 0.0 2.0 36 54
+ 0.176648 1 3 tcp 1040 ------- 0 0.0 2.0 36 54
r 0.176952 2 3 ack 40 ------- 0 2.0 0.0 18 55
+ 0.176952 3 1 ack 40 ------- 0 2.0 0.0 18 55
- 0.176952 3 1 ack 40 ------- 0 2.0 0.0 18 55
- 0.178408 1 3 tcp 1040 ------- 0 0.0 2.0 20 30
r 0.181272 3 1 ack 40 ------- 0 2.0 0.0 18 55
+ 0.181272 1 0 ack 40 ------- 0 2.0 0.0 18 55
- 0.181272 1 0 ack 40 ------- 0 2.0 0.0 18 55
r 0.182304 1 0 ack 40 ------- 0 2.0 0.0 18 55
+ 0.182304 0 1 tcp 1040 ------- 0 0.0 2.0 37 56
- 0.182304 0 1 tcp 1040 ------- 0 0.0 2.0 37 56
+ 0.182304 0 1 tcp 1040 ------- 0 0.0 2.0 38 57
r 0.182408 1 3 tcp 1040 ------- 0 0.0 2.0 19 29
+ 0.182408 3 2 tcp 1040 ------- 0 0.0 2.0 19 29
- 0.182408 3 2 tcp 1040 ------- 0 0.0 2.0 19 29
- 0.183136 0 1 tcp 1040 ------- 0 0.0 2.0 38 57
r 0.184136 0 1 tcp 1040 ------- 0 0.0 2.0 37 56
+ 0.184136 1 3 tcp 1040 ------- 0 0.0 2.0 37 56
r 0.18424 3 2 tcp 1040 ------- 0 0.0 2.0 19 29
+ 0.18424 2 3 ack 40 ------- 0 2.0 0.0 19 58
- 0.18424 2 3 ack 40 ------- 0 2.0 0.0 19 58
r 0.184968 0 1 tcp 1040 ------- 0 0.0 2.0 38 57
+ 0.184968 1 3 tcp 1040 ------- 0 0.0 2.0 38 57
d 0.184968 1 3 tcp 1040 ------- 0 0.0 2.0 38 57
r 0.185272 2 3 ack 40 ------- 0 2.0 0.0 19 58
+ 0.185272 3 1 ack 40 ------- 0 2.0 0.0 19 58
- 0.185272 3 1 ack 40 ------- 0 2.0 0.0 19 58
- 0.186728 1 3 tcp 1040 ------- 0 0.0 2.0 21 32
r 0.189592 3 1 ack 40 ------- 0 2.0 0.0 19 58
+ 0.189592 1 0 ack 40 ------- 0 2.0 0.0 19 58
- 0.189592 1 0 ack 40 ------- 0 2.0 0.0 19 58
r 0.190624 1 0 ack 40 ------- 0 2.0 0.0 19 58
+ 0.190624 0 1 tcp 1040 ------- 0 0.0 2.0 39 59
- 0.190624 0 1 tcp 1040 ------- 0 0.0 2.0 39 59
r 0.190728 1 3 tcp 1040 ------- 0 0.0 2.0 20 30
+ 0.190728 3 2 tcp 1040 ------- 0 0.0 2.0 20 30
- 0.190728 3 2 tcp 1040 ------- 0 0.0 2.0 20 30
r 0.192456 0 1 tcp 1040 ------- 0 0.0 2.0 39 59
+ 0.192456 1 3 tcp 1040 ------- 0 0.0 2.0 39 59
r 0.19256 3 2 tcp 1040 ------- 0 0.0 2.0 20 30
+ 0.19256 2 3 ack 40 ------- 0 2.0 0.0 20 60
- 0.19256 2 3 ack 40 ------- 0 2.0 0.0 20 60
r 0.193592 2 3 ack 40 ------- 0 2.0 0.0 20 60
+ 0.193592 3 1 ack 40 ------- 0 2.0 0.0 20 60
- 0.193592 3 1 ack 40 ------- 0 2.0 0.0 20 60
- 0.195048 1 3 tcp 1040 ------- 0 0.0 2.0 22 33
r 0.197912 3 1 ack 40 ------- 0 2.0 0.0 20 60
+ 0.197912 1 0 ack 40 ------- 0 2.0 0.0 20 60
- 0.197912 1 0 ack 40 ------- 0 2.0 0.0 20 60
r 0.198944 1 0 ack 40 ------- 0 2.0 0.0 20 60
+ 0.198944 0 1 tcp 1040 ------- 0 0.0 2.0 40 61
- 0.198944 0 1 tcp 1040 ------- 0 0.0 2.0 40 61
r 0.199048 1 3 tcp 1040 ------- 0 0.0 2.0 21 32
+ 0.199048 3 2 tcp 1040 ------- 0 0.0 2.0 21 32
- 0.199048 3 2 tcp 1040 ------- 0 0.0 2.0 21 32
r 0.200776 0 1 tcp 1040 ------- 0 0.0 2.0 40 61
+ 0.200776 1 3 tcp 1040 ------- 0 0.0 2.0 40 61
r 0.20088 3 2 tcp 1040 ------- 0 0.0 2.0 21 32
+ 0.20088 2 3 ack 40 ------- 0 2.0 0.0 21 62
- 0.20088 2 3 ack 40 ------- 0 2.0 0.0 21 62
r 0.201912 2 3 ack 40 ------- 0 2.0 0.0 21 62
+ 0.201912 3 1 ack 40 ------- 0 2.0 0.0 21 62
- 0.201912 3 1 ack 40 ------- 0 2.0 0.0 21 62
- 0.203368 1 3 tcp 1040 ------- 0 0.0 2.0 23 35
r 0.206232 3 1 ack 40 ------- 0 2.0 0.0 21 62
+ 0.206232 1 0 ack 40 ------- 0 2.0 0.0 21 62
- 0.206232 1 0 ack 40 ------- 0 2.0 0.0 21 62
r 0.207264 1 0 ack 40 ------- 0 2.0 0.0 21 62
+ 0.207264 0 1 tcp 1040 ------- 0 0.0 2.0 41 63
- 0.207264 0 1 tcp 1040 ------- 0 0.0 2.0 41 63
r 0.207368 1 3 tcp 1040 ------- 0 0.0 2.0 22 33
+ 0.207368 3 2 tcp 1040 ------- 0 0.0 2.0 22 33
- 0.207368 3 2 tcp 1040 ------- 0 0.0 2.0 22 33
r 0.209096 0 1 tcp 1040 ------- 0 0.0 2.0 41 63
+ 0.209096 1 3 tcp 1040 ------- 0 0.0 2.0 41 63
r 0.2092 3 2 tcp 1040 ------- 0 0.0 2.0 22 33
+ 0.2092 2 3 ack 40 ------- 0 2.0 0.0 22 64
- 0.2092 2 3 ack 40 ------- 0 2.0 0.0 22 64
r 0.210232 2 3 ack 40 ------- 0 2.0 0.0 22 64
+ 0.210232 3 1 ack 40 ------- 0 2.0 0.0 22 64
- 0.210232 3 1 ack 40 ------- 0 2.0 0.0 22 64
- 0.211688 1 3 tcp 1040 ------- 0 0.0 2.0 24 36
r 0.214552 3 1 ack 40 ------- 0 2.0 0.0 22 64
+ 0.214552 1 0 ack 40 ------- 0 2.0 0.0 22 64
- 0.214552 1 0 ack 40 ------- 0 2.0 0.0 22 64
r 0.215584 1 0 ack 40 ------- 0 2.0 0.0 22 64
+ 0.215584 0 1 tcp 1040 ------- 0 0.0 2.0 42 65
- 0.215584 0 1 tcp 1040 ------- 0 0.0 2.0 42 65
r 0.215688 1 3 tcp 1040 ------- 0 0.0 2.0 23 35
+ 0.215688 3 2 tcp 1040 ------- 0 0.0 2.0 23 35
- 0.215688 3 2 tcp 1040 ------- 0 0.0 2.0 23 35
r 0.217416 0 1 tcp 1040 ------- 0 0.0 2.0 42 65
+ 0.217416 1 3 tcp 1040 ------- 0 0.0 2.0 42 65
r 0.21752 3 2 tcp 1040 ------- 0 0.0 2.0 23 35
+ 0.21752 2 3 ack 40 ------- 0 2.0 0.0 23 66
- 0.21752 2 3 ack 40 ------- 0 2.0 0.0 23 66
r 0.218552 2 3 ack 40 ------- 0 2.0 0.0 23 66
+ 0.218552 3 1 ack 40 ------- 0 2.0 0.0 23 66
- 0.218552 3 1 ack 40 ------- 0 2.0 0.0 23 66
- 0.220008 1 3 tcp 1040 ------- 0 0.0 2.0 25 38
r 0.222872 3 1 ack 40 ------- 0 2.0 0.0 23 66
+ 0.222872 1 0 ack 40 ------- 0 2.0 0.0 23 66
- 0.222872 1 0 ack 40 ------- 0 2.0 0.0 23 66
r 0.223904 1 0 ack 40 ------- 0 2.0 0.0 23 66
+ 0.223904 0 1 tcp 1040 ------- 0 0.0 2.0 43 67
- 0.223904 0 1 tcp 1040 ------- 0 0.0 2.0 43 67
r 0.224008 1 3 tcp 1040 ------- 0 0.0 2.0 24 36
+ 0.224008 3 2 tcp 1040 ------- 0 0.0 2.0 24 36
- 0.224008 3 2 tcp 1040 ------- 0 0.0 2.0 24 36
r 0.225736 0 1 tcp 1040 ------- 0 0.0 2.0 43 67
+ 0.225736 1 3 tcp 1040 ------- 0 0.0 2.0 43 67
r 0.22584 3 2 tcp 1040 ------- 0 0.0 2.0 24 36
+ 0.22584 2 3 ack 40 ------- 0 2.0 0.0 24 68
- 0.22584 2 3 ack 40 ------- 0 2.0 0.0 24 68
r 0.226872 2 3 ack 40 ------- 0 2.0 0.0 24 68
+ 0.226872 3 1 ack 40 ------- 0 2.0 0.0 24 68
- 0.226872 3 1 ack 40 ------- 0 2.0 0.0 24 68
- 0.228328 1 3 tcp 1040 ------- 0 0.0 2.0 26 39
r 0.231192 3 1 ack 40 ------- 0 2.0 0.0 24 68
+ 0.231192 1 0 ack 40 ------- 0 2.0 0.0 24 68
- 0.231192 1 0 ack 40 ------- 0 2.0 0.0 24 68
r 0.232224 1 0 ack 40 ------- 0 2.0 0.0 24 68
+ 0.232224 0 1 tcp 1040 ------- 0 0.0 2.0 44 69
- 0.232224 0 1 tcp 1040 ------- 0 0.0 2.0 44 69
r 0.232328 1 3 tcp 1040 ------- 0 0.0 2.0 25 38
+ 0.232328 3 2 tcp 1040 ------- 0 0.0 2.0 25 38
- 0.232328 3 2 tcp 1040 ------- 0 0.0 2.0 25 38
r 0.234056 0 1 tcp 1040 ------- 0 0.0 2.0 44 69
+ 0.234056 1 3 tcp 1040 ------- 0 0.0 2.0 44 69
r 0.23416 3 2 tcp 1040 ------- 0 0.0 2.0 25 38
+ 0.23416 2 3 ack 40 ------- 0 2.0 0.0 25 70
- 0.23416 2 3 ack 40 ------- 0 2.0 0.0 25 70
r 0.235192 2 3 ack 40 ------- 0 2.0 0.0 25 70
+ 0.235192 3 1 ack 40 ------- 0 2.0 0.0 25 70
- 0.235192 3 1 ack 40 ------- 0 2.0 0.0 25 70
- 0.236648 1 3 tcp 1040 ------- 0 0.0 2.0 27 41
r 0.239512 3 1 ack 40 ------- 0 2.0 0.0 25 70
+ 0.239512 1 0 ack 40 ------- 0 2.0 0.0 25 70
- 0.239512 1 0 ack 40 ------- 0 2.0 0.0 25 70
r 0.240544 1 0 ack 40 ------- 0 2.0 0.0 25 70
+ 0.240544 0 1 tcp 1040 ------- 0 0.0 2.0 45 71
- 0.240544 0 1 tcp 1040 ------- 0 0.0 2.0 45 71
r 0.240648 1 3 tcp 1040 ------- 0 0.0 2.0 26 39
+ 0.240648 3 2 tcp 1040 ------- 0 0.0 2.0 26 39
- 0.240648 3 2 tcp 1040 ------- 0 0.0 2.0 26 39
r 0.242376 0 1 tcp 1040 ------- 0 0.0 2.0 45 71
+ 0.242376 1 3 tcp 1040 ------- 0 0.0 2.0 45 71
r 0.24248 3 2 tcp 1040 ------- 0 0.0 2.0 26 39
+ 0.24248 2 3 ack 40 ------- 0 2.0 0.0 26 72
- 0.24248 2 3 ack 40 ------- 0 2.0 0.0 26 72
r 0.243512 2 3 ack 40 ------- 0 2.0 0.0 26 72
+ 0.243512 3 1 ack 40 ------- 0 2.0 0.0 26 72
- 0.243512 3 1 ack 40 ------- 0 2.0 0.0 26 72
- 0.244968 1 3 tcp 1040 ------- 0 0.0 2.0 28 42
r 0.247832 3 1 ack 40 ------- 0 2.0 0.0 26 72
+ 0.247832 1 0 ack 40 ------- 0 2.0 0.0 26 72
- 0.247832 1 0 ack 40 ------- 0 2.0 0.0 26 72
r 0.248864 1 0 ack 40 ------- 0 2.0 0.0 26 72
+ 0.248864 0 1 tcp 1040 ------- 0 0.0 2.0 46 73
- 0.248864 0 1 tcp 1040 ------- 0 0.0 2.0 46 73
r 0.248968 1 3 tcp 1040 ------- 0 0.0 2.0 27 41
+ 0.248968 3 2 tcp 1040 ------- 0 0.0 2.0 27 41
- 0.248968 3 2 tcp 1040 ------- 0 0.0 2.0 27 41
r 0.250696 0 1 tcp 1040 ------- 0 0.0 2.0 46 73
+ 0.250696 1 3 tcp 1040 ------- 0 0.0 2.0 46 73
r 0.2508 3 2 tcp 1040 ------- 0 0.0 2.0 27 41
+ 0.2508 2 3 ack 40 ------- 0 2.0 0.0 27 74
- 0.2508 2 3 ack 40 ------- 0 2.0 0.0 27 74
r 0.251832 2 3 ack 40 ------- 0 2.0 0.0 27 74
+ 0.251832 3 1 ack 40 ------- 0 2.0 0.0 27 74
- 0.251832 3 1 ack 40 ------- 0 2.0 0.0 27 74
- 0.253288 1 3 tcp 1040 ------- 0 0.0 2.0 29 44
r 0.256152 3 1 ack 40 ------- 0 2.0 0.0 27 74
+ 0.256152 1 0 ack 40 ------- 0 2.0 0.0 27 74
- 0.256152 1 0 ack 40 ------- 0 2.0 0.0 27 74
r 0.257184 1 0 ack 40 ------- 0 2.0 0.0 27 74
+ 0.257184 0 1 tcp 1040 ------- 0 0.0 2.0 47 75
- 0.257184 0 1 tcp 1040 ------- 0 0.0 2.0 47 75
r 0.257288 1 3 tcp 1040 ------- 0 0.0 2.0 28 42
+ 0.257288 3 2 tcp 1040 ------- 0 0.0 2.0 28 42
- 0.257288 3 2 tcp 1040 ------- 0 0.0 2.0 28 42
r 0.259016 0 1 tcp 1040 ------- 0 0.0 2.0 47 75
+ 0.259016 1 3 tcp 1040 ------- 0 0.0 2.0 47 75
r 0.25912 3 2 tcp 1040 ------- 0 0.0 2.0 28 42
+ 0.25912 2 3 ack 40 ------- 0 2.0 0.0 28 76
- 0.25912 2 3 ack 40 ------- 0 2.0 0.0 28 76
r 0.260152 2 3 ack 40 ------- 0 2.0 0.0 28 76
+ 0.260152 3 1 ack 40 ------- 0 2.0 0.0 28 76
- 0.260152 3 1 ack 40 ------- 0 2.0 0.0 28 76
- 0.261608 1 3 tcp 1040 ------- 0 0.0 2.0 30 45
r 0.264472 3 1 ack 40 ------- 0 2.0 0.0 28 76
+ 0.264472 1 0 ack 40 ------- 0 2.0 0.0 28 76
- 0.264472 1 0 ack 40 ------- 0 2.0 0.0 28 76
r 0.265504 1 0 ack 40 ------- 0 2.0 0.0 28 76
+ 0.265504 0 1 tcp 1040 ------- 0 0.0 2.0 48 77
- 0.265504 0 1 tcp 1040 ------- 0 0.0 2.0 48 77
r 0.265608 1 3 tcp 1040 ------- 0 0.0 2.0 29 44
+ 0.265608 3 2 tcp 1040 ------- 0 0.0 2.0 29 44
- 0.265608 3 2 tcp 1040 ------- 0 0.0 2.0 29 44
r 0.267336 0 1 tcp 1040 ------- 0 0.0 2.0 48 77
+ 0.267336 1 3 tcp 1040 ------- 0 0.0 2.0 48 77
r 0.26744 3 2 tcp 1040 ------- 0 0.0 2.0 29 44
+ 0.26744 2 3 ack 40 ------- 0 2.0 0.0 29 78
- 0.26744 2 3 ack 40 ------- 0 2.0 0.0 29 78
r 0.268472 2 3 ack 40 ------- 0 2.0 0.0 29 78
+ 0.268472 3 1 ack 40 ------- 0 2.0 0.0 29 78
- 0.268472 3 1 ack 40 ------- 0 2.0 0.0 29 78
- 0.269928 1 3 tcp 1040 ------- 0 0.0 2.0 31 47
r 0.272792 3 1 ack 40 ------- 0 2.0 0.0 29 78
+ 0.272792 1 0 ack 40 ------- 0 2.0 0.0 29 78
- 0.272792 1 0 ack 40 ------- 0 2.0 0.0 29 78
r 0.273824 1 0 ack 40 ------- 0 2.0 0.0 29 78
+ 0.273824 0 1 tcp 1040 ------- 0 0.0 2.0 49 79
- 0.273824 0 1 tcp 1040 ------- 0 0.0 2.0 49 79
r 0.273928 1 3 tcp 1040 ------- 0 0.0 2.0 30 45
+ 0.273928 3 2 tcp 1040 ------- 0 0.0 2.0 30 45
- 0.273928 3 2 tcp 1040 ------- 0 0.0 2.0 30 45
r 0.275656 0 1 tcp 1040 ------- 0 0.0 2.0 49 79
+ 0.275656 1 3 tcp 1040 ------- 0 0.0 2.0 49 79
r 0.27576 3 2 tcp 1040 ------- 0 0.0 2.0 30 45
+ 0.27576 2 3 ack 40 ------- 0 2.0 0.0 30 80
- 0.27576 2 3 ack 40 ------- 0 2.0 0.0 30 80
r 0.276792 2 3 ack 40 ------- 0 2.0 0.0 30 80
+ 0.276792 3 1 ack 40 ------- 0 2.0 0.0 30 80
- 0.276792 3 1 ack 40 ------- 0 2.0 0.0 30 80
- 0.278248 1 3 tcp 1040 ------- 0 0.0 2.0 32 48
r 0.281112 3 1 ack 40 ------- 0 2.0 0.0 30 80
+ 0.281112 1 0 ack 40 ------- 0 2.0 0.0 30 80
- 0.281112 1 0 ack 40 ------- 0 2.0 0.0 30 80
r 0.282144 1 0 ack 40 ------- 0 2.0 0.0 30 80
+ 0.282144 0 1 tcp 1040 ------- 0 0.0 2.0 50 81
- 0.282144 0 1 tcp 1040 ------- 0 0.0 2.0 50 81
r 0.282248 1 3 tcp 1040 ------- 0 0.0 2.0 31 47
+ 0.282248 3 2 tcp 1040 ------- 0 0.0 2.0 31 47
- 0.282248 3 2 tcp 1040 ------- 0 0.0 2.0 31 47
r 0.283976 0 1 tcp 1040 ------- 0 0.0 2.0 50 81
+ 0.283976 1 3 tcp 1040 ------- 0 0.0 2.0 50 81
r 0.28408 3 2 tcp 1040 ------- 0 0.0 2.0 31 47