V -t * -v 1.0a5 -a 0
A -t * -n 1 -p 0 -o 0x7fffffff -c 30 -a 1
A -t * -h 1 -m 1073741823 -s 0
c -t * -i 1 -n Blue
n -t * -a 4 -s 4 -S UP -v circle -c black -i black
n -t * -a 0 -s 0 -S UP -v circle -c black -i black
n -t * -a 1 -s 1 -S UP -v circle -c black -i black
n -t * -a 2 -s 2 -S UP -v circle -c black -i black
n -t * -a 3 -s 3 -S UP -v circle -c black -i black
l -t * -s 0 -d 1 -S UP -r 500000 -D 0.01 -c black -o right
l -t * -s 1 -d 2 -S UP -r 500000 -D 0.01 -c black -o right
l -t * -s 1 -d 3 -S UP -r 500000 -D 0.01 -c black -o down
l -t * -s 3 -d 4 -S UP -r 500000 -D 0.01 -c black -o right
l -t * -s 3 -d 2 -S UP -r 500000 -D 0.01 -c black -o right-up
+ -t 0.000169788487334637 -s 0 -d 1 -p rtProtoDV -e 5 -c 0 -i 0 -a 0 -x {0.2 1.1 -1 ------- null}
- -t 0.000169788487334637 -s 0 -d 1 -p rtProtoDV -e 5 -c 0 -i 0 -a 0 -x {0.2 1.1 -1 ------- null}
h -t 0.000169788487334637 -s 0 -d 1 -p rtProtoDV -e 5 -c 0 -i 0 -a 0 -x {0.2 1.1 -1 ------- null}
+ -t 0.00710233021858257 -s 2 -d 1 -p rtProtoDV -e 5 -c 0 -i 1 -a 0 -x {2.1 1.1 -1 ------- null}
- -t 0.00710233021858257 -s 2 -d 1 -p rtProtoDV -e 5 -c 0 -i 1 -a 0 -x {2.1 1.1 -1 ------- null}
h -t 0.00710233021858257 -s 2 -d 1 -p rtProtoDV -e 5 -c 0 -i 1 -a 0 -x {2.1 1.1 -1 ------- null}
+ -t 0.00710233021858257 -s 2 -d 3 -p rtProtoDV -e 5 -c 0 -i 2 -a 0 -x {2.1 3.1 -1 ------- null}
- -t 0.00710233021858257 -s 2 -d 3 -p rtProtoDV -e 5 -c 0 -i 2 -a 0 -x {2.1 3.1 -1 ------- null}
h -t 0.00710233021858257 -s 2 -d 3 -p rtProtoDV -e 5 -c 0 -i 2 -a 0 -x {2.1 3.1 -1 ------- null}
r -t 0.0102497884873346 -s 0 -d 1 -p rtProtoDV -e 5 -c 0 -i 0 -a 0 -x {0.2 1.1 -1 ------- null}
r -t 0.0171823302185826 -s 2 -d 1 -p rtProtoDV -e 5 -c 0 -i 1 -a 0 -x {2.1 1.1 -1 ------- null}
r -t 0.0171823302185826 -s 2 -d 3 -p rtProtoDV -e 5 -c 0 -i 2 -a 0 -x {2.1 3.1 -1 ------- null}
+ -t 0.04406133552271 -s 3 -d 1 -p rtProtoDV -e 5 -c 0 -i 3 -a 0 -x {3.1 1.1 -1 ------- null}
- -t 0.04406133552271 -s 3 -d 1 -p rtProtoDV -e 5 -c 0 -i 3 -a 0 -x {3.1 1.1 -1 ------- null}
h -t 0.04406133552271 -s 3 -d 1 -p rtProtoDV -e 5 -c 0 -i 3 -a 0 -x {3.1 1.1 -1 ------- null}
+ -t 0.04406133552271 -s 3 -d 2 -p rtProtoDV -e 5 -c 0 -i 4 -a 0 -x {3.1 2.1 -1 ------- null}
- -t 0.04406133552271 -s 3 -d 2 -p rtProtoDV -e 5 -c 0 -i 4 -a 0 -x {3.1 2.1 -1 ------- null}
h -t 0.04406133552271 -s 3 -d 2 -p rtProtoDV -e 5 -c 0 -i 4 -a 0 -x {3.1 2.1 -1 ------- null}
+ -t 0.04406133552271 -s 3 -d 4 -p rtProtoDV -e 5 -c 0 -i 5 -a 0 -x {3.1 4.2 -1 ------- null}
- -t 0.04406133552271 -s 3 -d 4 -p rtProtoDV -e 5 -c 0 -i 5 -a 0 -x {3.1 4.2 -1 ------- null}
h -t 0.04406133552271 -s 3 -d 4 -p rtProtoDV -e 5 -c 0 -i 5 -a 0 -x {3.1 4.2 -1 ------- null}
r -t 0.05414133552271 -s 3 -d 1 -p rtProtoDV -e 5 -c 0 -i 3 -a 0 -x {3.1 1.1 -1 ------- null}
+ -t 0.05414133552271 -s 1 -d 0 -p rtProtoDV -e 5 -c 0 -i 6 -a 0 -x {1.1 0.2 -1 ------- null}
- -t 0.05414133552271 -s 1 -d 0 -p rtProtoDV -e 5 -c 0 -i 6 -a 0 -x {1.1 0.2 -1 ------- null}
h -t 0.05414133552271 -s 1 -d 0 -p rtProtoDV -e 5 -c 0 -i 6 -a 0 -x {1.1 0.2 -1 ------- null}
+ -t 0.05414133552271 -s 1 -d 2 -p rtProtoDV -e 5 -c 0 -i 7 -a 0 -x {1.1 2.1 -1 ------- null}
- -t 0.05414133552271 -s 1 -d 2 -p rtProtoDV -e 5 -c 0 -i 7 -a 0 -x {1.1 2.1 -1 ------- null}
h -t 0.05414133552271 -s 1 -d 2 -p rtProtoDV -e 5 -c 0 -i 7 -a 0 -x {1.1 2.1 -1 ------- null}
+ -t 0.05414133552271 -s 1 -d 3 -p rtProtoDV -e 5 -c 0 -i 8 -a 0 -x {1.1 3.1 -1 ------- null}
- -t 0.05414133552271 -s 1 -d 3 -p rtProtoDV -e 5 -c 0 -i 8 -a 0 -x {1.1 3.1 -1 ------- null}
h -t 0.05414133552271 -s 1 -d 3 -p rtProtoDV -e 5 -c 0 -i 8 -a 0 -x {1.1 3.1 -1 ------- null}
r -t 0.05414133552271 -s 3 -d 2 -p rtProtoDV -e 5 -c 0 -i 4 -a 0 -x {3.1 2.1 -1 ------- null}
+ -t 0.05414133552271 -s 2 -d 1 -p rtProtoDV -e 5 -c 0 -i 9 -a 0 -x {2.1 1.1 -1 ------- null}
- -t 0.05414133552271 -s 2 -d 1 -p rtProtoDV -e 5 -c 0 -i 9 -a 0 -x {2.1 1.1 -1 ------- null}
h -t 0.05414133552271 -s 2 -d 1 -p rtProtoDV -e 5 -c 0 -i 9 -a 0 -x {2.1 1.1 -1 ------- null}
+ -t 0.05414133552271 -s 2 -d 3 -p rtProtoDV -e 5 -c 0 -i 10 -a 0 -x {2.1 3.1 -1 ------- null}
- -t 0.05414133552271 -s 2 -d 3 -p rtProtoDV -e 5 -c 0 -i 10 -a 0 -x {2.1 3.1 -1 ------- null}
h -t 0.05414133552271 -s 2 -d 3 -p rtProtoDV -e 5 -c 0 -i 10 -a 0 -x {2.1 3.1 -1 ------- null}
r -t 0.05414133552271 -s 3 -d 4 -p rtProtoDV -e 5 -c 0 -i 5 -a 0 -x {3.1 4.2 -1 ------- null}
+ -t 0.05414133552271 -s 4 -d 3 -p rtProtoDV -e 5 -c 0 -i 11 -a 0 -x {4.2 3.1 -1 ------- null}
- -t 0.05414133552271 -s 4 -d 3 -p rtProtoDV -e 5 -c 0 -i 11 -a 0 -x {4.2 3.1 -1 ------- null}
h -t 0.05414133552271 -s 4 -d 3 -p rtProtoDV -e 5 -c 0 -i 11 -a 0 -x {4.2 3.1 -1 ------- null}
r -t 0.06422133552271 -s 1 -d 0 -p rtProtoDV -e 5 -c 0 -i 6 -a 0 -x {1.1 0.2 -1 ------- null}
+ -t 0.06422133552271 -s 0 -d 1 -p rtProtoDV -e 5 -c 0 -i 12 -a 0 -x {0.2 1.1 -1 ------- null}
- -t 0.06422133552271 -s 0 -d 1 -p rtProtoDV -e 5 -c 0 -i 12 -a 0 -x {0.2 1.1 -1 ------- null}
h -t 0.06422133552271 -s 0 -d 1 -p rtProtoDV -e 5 -c 0 -i 12 -a 0 -x {0.2 1.1 -1 ------- null}
r -t 0.06422133552271 -s 1 -d 2 -p rtProtoDV -e 5 -c 0 -i 7 -a 0 -x {1.1 2.1 -1 ------- null}
+ -t 0.06422133552271 -s 2 -d 1 -p rtProtoDV -e 5 -c 0 -i 13 -a 0 -x {2.1 1.1 -1 ------- null}
- -t 0.06422133552271 -s 2 -d 1 -p rtProtoDV -e 5 -c 0 -i 13 -a 0 -x {2.1 1.1 -1 ------- null}
h -t 0.06422133552271 -s 2 -d 1 -p rtProtoDV -e 5 -c 0 -i 13 -a 0 -x {2.1 1.1 -1 ------- null}
+ -t 0.06422133552271 -s 2 -d 3 -p rtProtoDV -e 5 -c 0 -i 14 -a 0 -x {2.1 3.1 -1 ------- null}
- -t 0.06422133552271 -s 2 -d 3 -p rtProtoDV -e 5 -c 0 -i 14 -a 0 -x {2.1 3.1 -1 ------- null}
h -t 0.06422133552271 -s 2 -d 3 -p rtProtoDV -e 5 -c 0 -i 14 -a 0 -x {2.1 3.1 -1 ------- null}
r -t 0.06422133552271 -s 1 -d 3 -p rtProtoDV -e 5 -c 0 -i 8 -a 0 -x {1.1 3.1 -1 ------- null}
+ -t 0.06422133552271 -s 3 -d 1 -p rtProtoDV -e 5 -c 0 -i 15 -a 0 -x {3.1 1.1 -1 ------- null}
- -t 0.06422133552271 -s 3 -d 1 -p rtProtoDV -e 5 -c 0 -i 15 -a 0 -x {3.1 1.1 -1 ------- null}
h -t 0.06422133552271 -s 3 -d 1 -p rtProtoDV -e 5 -c 0 -i 15 -a 0 -x {3.1 1.1 -1 ------- null}
+ -t 0.06422133552271 -s 3 -d 2 -p rtProtoDV -e 5 -c 0 -i 16 -a 0 -x {3.1 2.1 -1 ------- null}
- -t 0.06422133552271 -s 3 -d 2 -p rtProtoDV -e 5 -c 0 -i 16 -a 0 -x {3.1 2.1 -1 ------- null}
h -t 0.06422133552271 -s 3 -d 2 -p rtProtoDV -e 5 -c 0 -i 16 -a 0 -x {3.1 2.1 -1 ------- null}
+ -t 0.06422133552271 -s 3 -d 4 -p rtProtoDV -e 5 -c 0 -i 17 -a 0 -x {3.1 4.2 -1 ------- null}
- -t 0.06422133552271 -s 3 -d 4 -p rtProtoDV -e 5 -c 0 -i 17 -a 0 -x {3.1 4.2 -1 ------- null}
h -t 0.06422133552271 -s 3 -d 4 -p rtProtoDV -e 5 -c 0 -i 17 -a 0 -x {3.1 4.2 -1 ------- null}
r -t 0.06422133552271 -s 2 -d 1 -p rtProtoDV -e 5 -c 0 -i 9 -a 0 -x {2.1 1.1 -1 ------- null}
r -t 0.06422133552271 -s 2 -d 3 -p rtProtoDV -e 5 -c 0 -i 10 -a 0 -x {2.1 3.1 -1 ------- null}
r -t 0.06422133552271 -s 4 -d 3 -p rtProtoDV -e 5 -c 0 -i 11 -a 0 -x {4.2 3.1 -1 ------- null}
r -t 0.07430133552271 -s 0 -d 1 -p rtProtoDV -e 5 -c 0 -i 12 -a 0 -x {0.2 1.1 -1 ------- null}
r -t 0.07430133552271 -s 2 -d 1 -p rtProtoDV -e 5 -c 0 -i 13 -a 0 -x {2.1 1.1 -1 ------- null}
r -t 0.07430133552271 -s 2 -d 3 -p rtProtoDV -e 5 -c 0 -i 14 -a 0 -x {2.1 3.1 -1 ------- null}
r -t 0.07430133552271 -s 3 -d 1 -p rtProtoDV -e 5 -c 0 -i 15 -a 0 -x {3.1 1.1 -1 ------- null}
r -t 0.07430133552271 -s 3 -d 2 -p rtProtoDV -e 5 -c 0 -i 16 -a 0 -x {3.1 2.1 -1 ------- null}
r -t 0.07430133552271 -s 3 -d 4 -p rtProtoDV -e 5 -c 0 -i 17 -a 0 -x {3.1 4.2 -1 ------- null}
+ -t 0.07430133552271 -s 4 -d 3 -p rtProtoDV -e 5 -c 0 -i 18 -a 0 -x {4.2 3.1 -1 ------- null}
- -t 0.07430133552271 -s 4 -d 3 -p rtProtoDV -e 5 -c 0 -i 18 -a 0 -x {4.2 3.1 -1 ------- null}
h -t 0.07430133552271 -s 4 -d 3 -p rtProtoDV -e 5 -c 0 -i 18 -a 0 -x {4.2 3.1 -1 ------- null}
r -t 0.08438133552271 -s 4 -d 3 -p rtProtoDV -e 5 -c 0 -i 18 -a 0 -x {4.2 3.1 -1 ------- null}
+ -t 0.1 -s 0 -d 1 -p tcp -e 40 -c 1 -i 19 -a 1 -x {0.0 4.0 0 ------- null}
- -t 0.1 -s 0 -d 1 -p tcp -e 40 -c 1 -i 19 -a 1 -x {0.0 4.0 0 ------- null}
h -t 0.1 -s 0 -d 1 -p tcp -e 40 -c 1 -i 19 -a 1 -x {0.0 4.0 -1 ------- null}
r -t 0.11064 -s 0 -d 1 -p tcp -e 40 -c 1 -i 19 -a 1 -x {0.0 4.0 0 ------- null}
+ -t 0.11064 -s 1 -d 3 -p tcp -e 40 -c 1 -i 19 -a 1 -x {0.0 4.0 0 ------- null}
- -t 0.11064 -s 1 -d 3 -p tcp -e 40 -c 1 -i 19 -a 1 -x {0.0 4.0 0 ------- null}
h -t 0.11064 -s 1 -d 3 -p tcp -e 40 -c 1 -i 19 -a 1 -x {0.0 4.0 -1 ------- null}
r -t 0.12128 -s 1 -d 3 -p tcp -e 40 -c 1 -i 19 -a 1 -x {0.0 4.0 0 ------- null}
+ -t 0.12128 -s 3 -d 4 -p tcp -e 40 -c 1 -i 19 -a 1 -x {0.0 4.0 0 ------- null}
- -t 0.12128 -s 3 -d 4 -p tcp -e 40 -c 1 -i 19 -a 1 -x {0.0 4.0 0 ------- null}
h -t 0.12128 -s 3 -d 4 -p tcp -e 40 -c 1 -i 19 -a 1 -x {0.0 4.0 -1 ------- null}
r -t 0.13192 -s 3 -d 4 -p tcp -e 40 -c 1 -i 19 -a 1 -x {0.0 4.0 0 ------- null}
+ -t 0.13192 -s 4 -d 3 -p ack -e 40 -c 1 -i 20 -a 1 -x {4.0 0.0 0 ------- null}
- -t 0.13192 -s 4 -d 3 -p ack -e 40 -c 1 -i 20 -a 1 -x {4.0 0.0 0 ------- null}
h -t 0.13192 -s 4 -d 3 -p ack -e 40 -c 1 -i 20 -a 1 -x {4.0 0.0 -1 ------- null}
r -t 0.14256 -s 4 -d 3 -p ack -e 40 -c 1 -i 20 -a 1 -x {4.0 0.0 0 ------- null}
+ -t 0.14256 -s 3 -d 1 -p ack -e 40 -c 1 -i 20 -a 1 -x {4.0 0.0 0 ------- null}
- -t 0.14256 -s 3 -d 1 -p ack -e 40 -c 1 -i 20 -a 1 -x {4.0 0.0 0 ------- null}
h -t 0.14256 -s 3 -d 1 -p ack -e 40 -c 1 -i 20 -a 1 -x {4.0 0.0 -1 ------- null}
r -t 0.1532 -s 3 -d 1 -p ack -e 40 -c 1 -i 20 -a 1 -x {4.0 0.0 0 ------- null}
+ -t 0.1532 -s 1 -d 0 -p ack -e 40 -c 1 -i 20 -a 1 -x {4.0 0.0 0 ------- null}
- -t 0.1532 -s 1 -d 0 -p ack -e 40 -c 1 -i 20 -a 1 -x {4.0 0.0 0 ------- null}
h -t 0.1532 -s 1 -d 0 -p ack -e 40 -c 1 -i 20 -a 1 -x {4.0 0.0 -1 ------- null}
r -t 0.16384 -s 1 -d 0 -p ack -e 40 -c 1 -i 20 -a 1 -x {4.0 0.0 0 ------- null}
+ -t 0.16384 -s 0 -d 1 -p tcp -e 1040 -c 1 -i 21 -a 1 -x {0.0 4.0 1 ------- null}
- -t 0.16384 -s 0 -d 1 -p tcp -e 1040 -c 1 -i 21 -a 1 -x {0.0 4.0 1 ------- null}
h -t 0.16384 -s 0 -d 1 -p tcp -e 1040 -c 1 -i 21 -a 1 -x {0.0 4.0 -1 ------- null}
+ -t 0.16384 -s 0 -d 1 -p tcp -e 1040 -c 1 -i 22 -a 1 -x {0.0 4.0 2 ------- null}
- -t 0.18048 -s 0 -d 1 -p tcp -e 1040 -c 1 -i 22 -a 1 -x {0.0 4.0 2 ------- null}
h -t 0.18048 -s 0 -d 1 -p tcp -e 1040 -c 1 -i 22 -a 1 -x {0.0 4.0 -1 ------- null}
r -t 0.19048 -s 0 -d 1 -p tcp -e 1040 -c 1 -i 21 -a 1 -x {0.0 4.0 1 ------- null}
+ -t 0.19048 -s 1 -d 3 -p tcp -e 1040 -c 1 -i 21 -a 1 -x {0.0 4.0 1 ------- null}
- -t 0.19048 -s 1 -d 3 -p tcp -e 1040 -c 1 -i 21 -a 1 -x {0.0 4.0 1 ------- null}
h -t 0.19048 -s 1 -d 3 -p tcp -e 1040 -c 1 -i 21 -a 1 -x {0.0 4.0 -1 ------- null}
r -t 0.20712 -s 0 -d 1 -p tcp -e 1040 -c 1 -i 22 -a 1 -x {0.0 4.0 2 ------- null}
+ -t 0.20712 -s 1 -d 3 -p tcp -e 1040 -c 1 -i 22 -a 1 -x {0.0 4.0 2 ------- null}
- -t 0.20712 -s 1 -d 3 -p tcp -e 1040 -c 1 -i 22 -a 1 -x {0.0 4.0 2 ------- null}
h -t 0.20712 -s 1 -d 3 -p tcp -e 1040 -c 1 -i 22 -a 1 -x {0.0 4.0 -1 ------- null}
r -t 0.21712 -s 1 -d 3 -p tcp -e 1040 -c 1 -i 21 -a 1 -x {0.0 4.0 1 ------- null}
+ -t 0.21712 -s 3 -d 4 -p tcp -e 1040 -c 1 -i 21 -a 1 -x {0.0 4.0 1 ------- null}
- -t 0.21712 -s 3 -d 4 -p tcp -e 1040 -c 1 -i 21 -a 1 -x {0.0 4.0 1 ------- null}
h -t 0.21712 -s 3 -d 4 -p tcp -e 1040 -c 1 -i 21 -a 1 -x {0.0 4.0 -1 ------- null}
+ -t 0.22058669092161 -s 4 -d 3 -p rtProtoDV -e 5 -c 0 -i 23 -a 0 -x {4.2 3.1 -1 ------- null}
- -t 0.22058669092161 -s 4 -d 3 -p rtProtoDV -e 5 -c 0 -i 23 -a 0 -x {4.2 3.1 -1 ------- null}
h -t 0.22058669092161 -s 4 -d 3 -p rtProtoDV -e 5 -c 0 -i 23 -a 0 -x {4.2 3.1 -1 ------- null}
r -t 0.23066669092161 -s 4 -d 3 -p rtProtoDV -e 5 -c 0 -i 23 -a 0 -x {4.2 3.1 -1 ------- null}
r -t 0.23376 -s 1 -d 3 -p tcp -e 1040 -c 1 -i 22 -a 1 -x {0.0 4.0 2 ------- null}
+ -t 0.23376 -s 3 -d 4 -p tcp -e 1040 -c 1 -i 22 -a 1 -x {0.0 4.0 2 ------- null}
- -t 0.23376 -s 3 -d 4 -p tcp -e 1040 -c 1 -i 22 -a 1 -x {0.0 4.0 2 ------- null}
h -t 0.23376 -s 3 -d 4 -p tcp -e 1040 -c 1 -i 22 -a 1 -x {0.0 4.0 -1 ------- null}
r -t 0.24376 -s 3 -d 4 -p tcp -e 1040 -c 1 -i 21 -a 1 -x {0.0 4.0 1 ------- null}
+ -t 0.24376 -s 4 -d 3 -p ack -e 40 -c 1 -i 24 -a 1 -x {4.0 0.0 1 ------- null}
- -t 0.24376 -s 4 -d 3 -p ack -e 40 -c 1 -i 24 -a 1 -x {4.0 0.0 1 ------- null}
h -t 0.24376 -s 4 -d 3 -p ack -e 40 -c 1 -i 24 -a 1 -x {4.0 0.0 -1 ------- null}
r -t 0.2544 -s 4 -d 3 -p ack -e 40 -c 1 -i 24 -a 1 -x {4.0 0.0 1 ------- null}
+ -t 0.2544 -s 3 -d 1 -p ack -e 40 -c 1 -i 24 -a 1 -x {4.0 0.0 1 ------- null}
- -t 0.2544 -s 3 -d 1 -p ack -e 40 -c 1 -i 24 -a 1 -x {4.0 0.0 1 ------- null}
h -t 0.2544 -s 3 -d 1 -p ack -e 40 -c 1 -i 24 -a 1 -x {4.0 0.0 -1 ------- null}
r -t 0.2604 -s 3 -d 4 -p tcp -e 1040 -c 1 -i 22 -a 1 -x {0.0 4.0 2 ------- null}
+ -t 0.2604 -s 4 -d 3 -p ack -e 40 -c 1 -i 25 -a 1 -x {4.0 0.0 2 ------- null}
- -t 0.2604 -s 4 -d 3 -p ack -e 40 -c 1 -i 25 -a 1 -x {4.0 0.0 2 ------- null}
h -t 0.2604 -s 4 -d 3 -p ack -e 40 -c 1 -i 25 -a 1 -x {4.0 0.0 -1 ------- null}
r -t 0.26504 -s 3 -d 1 -p ack -e 40 -c 1 -i 24 -a 1 -x {4.0 0.0 1 ------- null}
+ -t 0.26504 -s 1 -d 0 -p ack -e 40 -c 1 -i 24 -a 1 -x {4.0 0.0 1 ------- null}
- -t 0.26504 -s 1 -d 0 -p ack -e 40 -c 1 -i 24 -a 1 -x {4.0 0.0 1 ------- null}
h -t 0.26504 -s 1 -d 0 -p ack -e 40 -c 1 -i 24 -a 1 -x {4.0 0.0 -1 ------- null}
r -t 0.27104 -s 4 -d 3 -p ack -e 40 -c 1 -i 25 -a 1 -x {4.0 0.0 2 ------- null}
+ -t 0.27104 -s 3 -d 1 -p ack -e 40 -c 1 -i 25 -a 1 -x {4.0 0.0 2 ------- null}
- -t 0.27104 -s 3 -d 1 -p ack -e 40 -c 1 -i 25 -a 1 -x {4.0 0.0 2 ------- null}
h -t 0.27104 -s 3 -d 1 -p ack -e 40 -c 1 -i 25 -a 1 -x {4.0 0.0 -1 ------- null}
r -t 0.27568 -s 1 -d 0 -p ack -e 40 -c 1 -i 24 -a 1 -x {4.0 0.0 1 ------- null}
+ -t 0.27568 -s 0 -d 1 -p tcp -e 1040 -c 1 -i 26 -a 1 -x {0.0 4.0 3 ------- null}
- -t 0.27568 -s 0 -d 1 -p tcp -e 1040 -c 1 -i 26 -a 1 -x {0.0 4.0 3 ------- null}
h -t 0.27568 -s 0 -d 1 -p tcp -e 1040 -c 1 -i 26 -a 1 -x {0.0 4.0 -1 ------- null}
+ -t 0.27568 -s 0 -d 1 -p tcp -e 1040 -c 1 -i 27 -a 1 -x {0.0 4.0 4 ------- null}
+ -t 0.277940357931862 -s 1 -d 0 -p rtProtoDV -e 5 -c 0 -i 28 -a 0 -x {1.1 0.2 -1 ------- null}
- -t 0.277940357931862 -s 1 -d 0 -p rtProtoDV -e 5 -c 0 -i 28 -a 0 -x {1.1 0.2 -1 ------- null}
h -t 0.277940357931862 -s 1 -d 0 -p rtProtoDV -e 5 -c 0 -i 28 -a 0 -x {1.1 0.2 -1 ------- null}
+ -t 0.277940357931862 -s 1 -d 2 -p rtProtoDV -e 5 -c 0 -i 29 -a 0 -x {1.1 2.1 -1 ------- null}
- -t 0.277940357931862 -s 1 -d 2 -p rtProtoDV -e 5 -c 0 -i 29 -a 0 -x {1.1 2.1 -1 ------- null}
h -t 0.277940357931862 -s 1 -d 2 -p rtProtoDV -e 5 -c 0 -i 29 -a 0 -x {1.1 2.1 -1 ------- null}
+ -t 0.277940357931862 -s 1 -d 3 -p rtProtoDV -e 5 -c 0 -i 30 -a 0 -x {1.1 3.1 -1 ------- null}
- -t 0.277940357931862 -s 1 -d 3 -p rtProtoDV -e 5 -c 0 -i 30 -a 0 -x {1.1 3.1 -1 ------- null}
h -t 0.277940357931862 -s 1 -d 3 -p rtProtoDV -e 5 -c 0 -i 30 -a 0 -x {1.1 3.1 -1 ------- null}
r -t 0.28168 -s 3 -d 1 -p ack -e 40 -c 1 -i 25 -a 1 -x {4.0 0.0 2 ------- null}
+ -t 0.28168 -s 1 -d 0 -p ack -e 40 -c 1 -i 25 -a 1 -x {4.0 0.0 2 ------- null}
- -t 0.28168 -s 1 -d 0 -p ack -e 40 -c 1 -i 25 -a 1 -x {4.0 0.0 2 ------- null}
h -t 0.28168 -s 1 -d 0 -p ack -e 40 -c 1 -i 25 -a 1 -x {4.0 0.0 -1 ------- null}
r -t 0.288020357931862 -s 1 -d 0 -p rtProtoDV -e 5 -c 0 -i 28 -a 0 -x {1.1 0.2 -1 ------- null}
r -t 0.288020357931862 -s 1 -d 2 -p rtProtoDV -e 5 -c 0 -i 29 -a 0 -x {1.1 2.1 -1 ------- null}
r -t 0.288020357931862 -s 1 -d 3 -p rtProtoDV -e 5 -c 0 -i 30 -a 0 -x {1.1 3.1 -1 ------- null}
- -t 0.29232 -s 0 -d 1 -p tcp -e 1040 -c 1 -i 27 -a 1 -x {0.0 4.0 4 ------- null}
h -t 0.29232 -s 0 -d 1 -p tcp -e 1040 -c 1 -i 27 -a 1 -x {0.0 4.0 -1 ------- null}
r -t 0.29232 -s 1 -d 0 -p ack -e 40 -c 1 -i 25 -a 1 -x {4.0 0.0 2 ------- null}
+ -t 0.29232 -s 0 -d 1 -p tcp -e 1040 -c 1 -i 31 -a 1 -x {0.0 4.0 5 ------- null}
+ -t 0.29232 -s 0 -d 1 -p tcp -e 1040 -c 1 -i 32 -a 1 -x {0.0 4.0 6 ------- null}
r -t 0.30232 -s 0 -d 1 -p tcp -e 1040 -c 1 -i 26 -a 1 -x {0.0 4.0 3 ------- null}
+ -t 0.30232 -s 1 -d 3 -p tcp -e 1040 -c 1 -i 26 -a 1 -x {0.0 4.0 3 ------- null}
- -t 0.30232 -s 1 -d 3 -p tcp -e 1040 -c 1 -i 26 -a 1 -x {0.0 4.0 3 ------- null}
h -t 0.30232 -s 1 -d 3 -p tcp -e 1040 -c 1 -i 26 -a 1 -x {0.0 4.0 -1 ------- null}
- -t 0.30896 -s 0 -d 1 -p tcp -e 1040 -c 1 -i 31 -a 1 -x {0.0 4.0 5 ------- null}
h -t 0.30896 -s 0 -d 1 -p tcp -e 1040 -c 1 -i 31 -a 1 -x {0.0 4.0 -1 ------- null}
r -t 0.31896 -s 0 -d 1 -p tcp -e 1040 -c 1 -i 27 -a 1 -x {0.0 4.0 4 ------- null}
+ -t 0.31896 -s 1 -d 3 -p tcp -e 1040 -c 1 -i 27 -a 1 -x {0.0 4.0 4 ------- null}
- -t 0.31896 -s 1 -d 3 -p tcp -e 1040 -c 1 -i 27 -a 1 -x {0.0 4.0 4 ------- null}
h -t 0.31896 -s 1 -d 3 -p tcp -e 1040 -c 1 -i 27 -a 1 -x {0.0 4.0 -1 ------- null}
- -t 0.3256 -s 0 -d 1 -p tcp -e 1040 -c 1 -i 32 -a 1 -x {0.0 4.0 6 ------- null}
h -t 0.3256 -s 0 -d 1 -p tcp -e 1040 -c 1 -i 32 -a 1 -x {0.0 4.0 -1 ------- null}
r -t 0.32896 -s 1 -d 3 -p tcp -e 1040 -c 1 -i 26 -a 1 -x {0.0 4.0 3 ------- null}
+ -t 0.32896 -s 3 -d 4 -p tcp -e 1040 -c 1 -i 26 -a 1 -x {0.0 4.0 3 ------- null}
- -t 0.32896 -s 3 -d 4 -p tcp -e 1040 -c 1 -i 26 -a 1 -x {0.0 4.0 3 ------- null}
h -t 0.32896 -s 3 -d 4 -p tcp -e 1040 -c 1 -i 26 -a 1 -x {0.0 4.0 -1 ------- null}
r -t 0.3356 -s 0 -d 1 -p tcp -e 1040 -c 1 -i 31 -a 1 -x {0.0 4.0 5 ------- null}
+ -t 0.3356 -s 1 -d 3 -p tcp -e 1040 -c 1 -i 31 -a 1 -x {0.0 4.0 5 ------- null}
- -t 0.3356 -s 1 -d 3 -p tcp -e 1040 -c 1 -i 31 -a 1 -x {0.0 4.0 5 ------- null}
h -t 0.3356 -s 1 -d 3 -p tcp -e 1040 -c 1 -i 31 -a 1 -x {0.0 4.0 -1 ------- null}
r -t 0.3456 -s 1 -d 3 -p tcp -e 1040 -c 1 -i 27 -a 1 -x {0.0 4.0 4 ------- null}
+ -t 0.3456 -s 3 -d 4 -p tcp -e 1040 -c 1 -i 27 -a 1 -x {0.0 4.0 4 ------- null}
- -t 0.3456 -s 3 -d 4 -p tcp -e 1040 -c 1 -i 27 -a 1 -x {0.0 4.0 4 ------- null}
h -t 0.3456 -s 3 -d 4 -p tcp -e 1040 -c 1 -i 27 -a 1 -x {0.0 4.0 -1 ------- null}
r -t 0.35224 -s 0 -d 1 -p tcp -e 1040 -c 1 -i 32 -a 1 -x {0.0 4.0 6 ------- null}
+ -t 0.35224 -s 1 -d 3 -p tcp -e 1040 -c 1 -i 32 -a 1 -x {0.0 4.0 6 ------- null}
- -t 0.35224 -s 1 -d 3 -p tcp -e 1040 -c 1 -i 32 -a 1 -x {0.0 4.0 6 ------- null}
h -t 0.35224 -s 1 -d 3 -p tcp -e 1040 -c 1 -i 32 -a 1 -x {0.0 4.0 -1 ------- null}
r -t 0.3556 -s 3 -d 4 -p tcp -e 1040 -c 1 -i 26 -a 1 -x {0.0 4.0 3 ------- null}
+ -t 0.3556 -s 4 -d 3 -p ack -e 40 -c 1 -i 33 -a 1 -x {4.0 0.0 3 ------- null}
- -t 0.3556 -s 4 -d 3 -p ack -e 40 -c 1 -i 33 -a 1 -x {4.0 0.0 3 ------- null}
h -t 0.3556 -s 4 -d 3 -p ack -e 40 -c 1 -i 33 -a 1 -x {4.0 0.0 -1 ------- null}
r -t 0.36224 -s 1 -d 3 -p tcp -e 1040 -c 1 -i 31 -a 1 -x {0.0 4.0 5 ------- null}
+ -t 0.36224 -s 3 -d 4 -p tcp -e 1040 -c 1 -i 31 -a 1 -x {0.0 4.0 5 ------- null}
- -t 0.36224 -s 3 -d 4 -p tcp -e 1040 -c 1 -i 31 -a 1 -x {0.0 4.0 5 ------- null}
h -t 0.36224 -s 3 -d 4 -p tcp -e 1040 -c 1 -i 31 -a 1 -x {0.0 4.0 -1 ------- null}
r -t 0.36624 -s 4 -d 3 -p ack -e 40 -c 1 -i 33 -a 1 -x {4.0 0.0 3 ------- null}
+ -t 0.36624 -s 3 -d 1 -p ack -e 40 -c 1 -i 33 -a 1 -x {4.0 0.0 3 ------- null}
- -t 0.36624 -s 3 -d 1 -p ack -e 40 -c 1 -i 33 -a 1 -x {4.0 0.0 3 ------- null}
h -t 0.36624 -s 3 -d 1 -p ack -e 40 -c 1 -i 33 -a 1 -x {4.0 0.0 -1 ------- null}
r -t 0.37224 -s 3 -d 4 -p tcp -e 1040 -c 1 -i 27 -a 1 -x {0.0 4.0 4 ------- null}
+ -t 0.37224 -s 4 -d 3 -p ack -e 40 -c 1 -i 34 -a 1 -x {4.0 0.0 4 ------- null}
- -t 0.37224 -s 4 -d 3 -p ack -e 40 -c 1 -i 34 -a 1 -x {4.0 0.0 4 ------- null}
h -t 0.37224 -s 4 -d 3 -p ack -e 40 -c 1 -i 34 -a 1 -x {4.0 0.0 -1 ------- null}
r -t 0.37688 -s 3 -d 1 -p ack -e 40 -c 1 -i 33 -a 1 -x {4.0 0.0 3 ------- null}
+ -t 0.37688 -s 1 -d 0 -p ack -e 40 -c 1 -i 33 -a 1 -x {4.0 0.0 3 ------- null}
- -t 0.37688 -s 1 -d 0 -p ack -e 40 -c 1 -i 33 -a 1 -x {4.0 0.0 3 ------- null}
h -t 0.37688 -s 1 -d 0 -p ack -e 40 -c 1 -i 33 -a 1 -x {4.0 0.0 -1 ------- null}
r -t 0.37888 -s 1 -d 3 -p tcp -e 1040 -c 1 -i 32 -a 1 -x {0.0 4.0 6 ------- null}
+ -t 0.37888 -s 3 -d 4 -p tcp -e 1040 -c 1 -i 32 -a 1 -x {0.0 4.0 6 ------- null}
- -t 0.37888 -s 3 -d 4 -p tcp -e 1040 -c 1 -i 32 -a 1 -x {0.0 4.0 6 ------- null}
h -t 0.37888 -s 3 -d 4 -p tcp -e 1040 -c 1 -i 32 -a 1 -x {0.0 4.0 -1 ------- null}
r -t 0.38288 -s 4 -d 3 -p ack -e 40 -c 1 -i 34 -a 1 -x {4.0 0.0 4 ------- null}
+ -t 0.38288 -s 3 -d 1 -p ack -e 40 -c 1 -i 34 -a 1 -x {4.0 0.0 4 ------- null}
- -t 0.38288 -s 3 -d 1 -p ack -e 40 -c 1 -i 34 -a 1 -x {4.0 0.0 4 ------- null}
h -t 0.38288 -s 3 -d 1 -p ack -e 40 -c 1 -i 34 -a 1 -x {4.0 0.0 -1 ------- null}
r -t 0.38752 -s 1 -d 0 -p ack -e 40 -c 1 -i 33 -a 1 -x {4.0 0.0 3 ------- null}
+ -t 0.38752 -s 0 -d 1 -p tcp -e 1040 -c 1 -i 35 -a 1 -x {0.0 4.0 7 ------- null}
- -t 0.38752 -s 0 -d 1 -p tcp -e 1040 -c 1 -i 35 -a 1 -x {0.0 4.0 7 ------- null}
h -t 0.38752 -s 0 -d 1 -p tcp -e 1040 -c 1 -i 35 -a 1 -x {0.0 4.0 -1 ------- null}
+ -t 0.38752 -s 0 -d 1 -p tcp -e 1040 -c 1 -i 36 -a 1 -x {0.0 4.0 8 ------- null}
r -t 0.38888 -s 3 -d 4 -p tcp -e 1040 -c 1 -i 31 -a 1 -x {0.0 4.0 5 ------- null}
+ -t 0.38888 -s 4 -d 3 -p ack -e 40 -c 1 -i 37 -a 1 -x {4.0 0.0 5 ------- null}
- -t 0.38888 -s 4 -d 3 -p ack -e 40 -c 1 -i 37 -a 1 -x {4.0 0.0 5 ------- null}
h -t 0.38888 -s 4 -d 3 -p ack -e 40 -c 1 -i 37 -a 1 -x {4.0 0.0 -1 ------- null}
r -t 0.39352 -s 3 -d 1 -p ack -e 40 -c 1 -i 34 -a 1 -x {4.0 0.0 4 ------- null}
+ -t 0.39352 -s 1 -d 0 -p ack -e 40 -c 1 -i 34 -a 1 -x {4.0 0.0 4 ------- null}
- -t 0.39352 -s 1 -d 0 -p ack -e 40 -c 1 -i 34 -a 1 -x {4.0 0.0 4 ------- null}
h -t 0.39352 -s 1 -d 0 -p ack -e 40 -c 1 -i 34 -a 1 -x {4.0 0.0 -1 ------- null}
r -t 0.39952 -s 4 -d 3 -p ack -e 40 -c 1 -i 37 -a 1 -x {4.0 0.0 5 ------- null}
+ -t 0.39952 -s 3 -d 1 -p ack -e 40 -c 1 -i 37 -a 1 -x {4.0 0.0 5 ------- null}
- -t 0.39952 -s 3 -d 1 -p ack -e 40 -c 1 -i 37 -a 1 -x {4.0 0.0 5 ------- null}
h -t 0.39952 -s 3 -d 1 -p ack -e 40 -c 1 -i 37 -a 1 -x {4.0 0.0 -1 ------- null}
- -t 0.40416 -s 0 -d 1 -p tcp -e 1040 -c 1 -i 36 -a 1 -x {0.0 4.0 8 ------- null}
h -t 0.40416 -s 0 -d 1 -p tcp -e 1040 -c 1 -i 36 -a 1 -x {0.0 4.0 -1 ------- null}
r -t 0.40416 -s 1 -d 0 -p ack -e 40 -c 1 -i 34 -a 1 -x {4.0 0.0 4 ------- null}
+ -t 0.40416 -s 0 -d 1 -p tcp -e 1040 -c 1 -i 38 -a 1 -x {0.0 4.0 9 ------- null}
+ -t 0.40416 -s 0 -d 1 -p tcp -e 1040 -c 1 -i 39 -a 1 -x {0.0 4.0 10 ------- null}
r -t 0.40552 -s 3 -d 4 -p tcp -e 1040 -c 1 -i 32 -a 1 -x {0.0 4.0 6 ------- null}
+ -t 0.40552 -s 4 -d 3 -p ack -e 40 -c 1 -i 40 -a 1 -x {4.0 0.0 6 ------- null}
- -t 0.40552 -s 4 -d 3 -p ack -e 40 -c 1 -i 40 -a 1 -x {4.0 0.0 6 ------- null}
h -t 0.40552 -s 4 -d 3 -p ack -e 40 -c 1 -i 40 -a 1 -x {4.0 0.0 -1 ------- null}
r -t 0.41016 -s 3 -d 1 -p ack -e 40 -c 1 -i 37 -a 1 -x {4.0 0.0 5 ------- null}
+ -t 0.41016 -s 1 -d 0 -p ack -e 40 -c 1 -i 37 -a 1 -x {4.0 0.0 5 ------- null}
- -t 0.41016 -s 1 -d 0 -p ack -e 40 -c 1 -i 37 -a 1 -x {4.0 0.0 5 ------- null}
h -t 0.41016 -s 1 -d 0 -p ack -e 40 -c 1 -i 37 -a 1 -x {4.0 0.0 -1 ------- null}
r -t 0.41416 -s 0 -d 1 -p tcp -e 1040 -c 1 -i 35 -a 1 -x {0.0 4.0 7 ------- null}
+ -t 0.41416 -s 1 -d 3 -p tcp -e 1040 -c 1 -i 35 -a 1 -x {0.0 4.0 7 ------- null}
- -t 0.41416 -s 1 -d 3 -p tcp -e 1040 -c 1 -i 35 -a 1 -x {0.0 4.0 7 ------- null}
h -t 0.41416 -s 1 -d 3 -p tcp -e 1040 -c 1 -i 35 -a 1 -x {0.0 4.0 -1 ------- null}
r -t 0.41616 -s 4 -d 3 -p ack -e 40 -c 1 -i 40 -a 1 -x {4.0 0.0 6 ------- null}
+ -t 0.41616 -s 3 -d 1 -p ack -e 40 -c 1 -i 40 -a 1 -x {4.0 0.0 6 ------- null}
- -t 0.41616 -s 3 -d 1 -p ack -e 40 -c 1 -i 40 -a 1 -x {4.0 0.0 6 ------- null}
h -t 0.41616 -s 3 -d 1 -p ack -e 40 -c 1 -i 40 -a 1 -x {4.0 0.0 -1 ------- null}
- -t 0.4208 -s 0 -d 1 -p tcp -e 1040 -c 1 -i 38 -a 1 -x {0.0 4.0 9 ------- null}
h -t 0.4208 -s 0 -d 1 -p tcp -e 1040 -c 1 -i 38 -a 1 -x {0.0 4.0 -1 ------- null}
r -t 0.4208 -s 1 -d 0 -p ack -e 40 -c 1 -i 37 -a 1 -x {4.0 0.0 5 ------- null}
+ -t 0.4208 -s 0 -d 1 -p tcp -e 1040 -c 1 -i 41 -a 1 -x {0.0 4.0 11 ------- null}
+ -t 0.4208 -s 0 -d 1 -p tcp -e 1040 -c 1 -i 42 -a 1 -x {0.0 4.0 12 ------- null}
r -t 0.4268 -s 3 -d 1 -p ack -e 40 -c 1 -i 40 -a 1 -x {4.0 0.0 6 ------- null}
+ -t 0.4268 -s 1 -d 0 -p ack -e 40 -c 1 -i 40 -a 1 -x {4.0 0.0 6 ------- null}
- -t 0.4268 -s 1 -d 0 -p ack -e 40 -c 1 -i 40 -a 1 -x {4.0 0.0 6 ------- null}
h -t 0.4268 -s 1 -d 0 -p ack -e 40 -c 1 -i 40 -a 1 -x {4.0 0.0 -1 ------- null}
r -t 0.4308 -s 0 -d 1 -p tcp -e 1040 -c 1 -i 36 -a 1 -x {0.0 4.0 8 ------- null}
+ -t 0.4308 -s 1 -d 3 -p tcp -e 1040 -c 1 -i 36 -a 1 -x {0.0 4.0 8 ------- null}
- -t 0.4308 -s 1 -d 3 -p tcp -e 1040 -c 1 -i 36 -a 1 -x {0.0 4.0 8 ------- null}
h -t 0.4308 -s 1 -d 3 -p tcp -e 1040 -c 1 -i 36 -a 1 -x {0.0 4.0 -1 ------- null}
- -t 0.43744 -s 0 -d 1 -p tcp -e 1040 -c 1 -i 39 -a 1 -x {0.0 4.0 10 ------- null}
h -t 0.43744 -s 0 -d 1 -p tcp -e 1040 -c 1 -i 39 -a 1 -x {0.0 4.0 -1 ------- null}
r -t 0.43744 -s 1 -d 0 -p ack -e 40 -c 1 -i 40 -a 1 -x {4.0 0.0 6 ------- null}
+ -t 0.43744 -s 0 -d 1 -p tcp -e 1040 -c 1 -i 43 -a 1 -x {0.0 4.0 13 ------- null}
+ -t 0.43744 -s 0 -d 1 -p tcp -e 1040 -c 1 -i 44 -a 1 -x {0.0 4.0 14 ------- null}
r -t 0.4408 -s 1 -d 3 -p tcp -e 1040 -c 1 -i 35 -a 1 -x {0.0 4.0 7 ------- null}
+ -t 0.4408 -s 3 -d 4 -p tcp -e 1040 -c 1 -i 35 -a 1 -x {0.0 4.0 7 ------- null}
- -t 0.4408 -s 3 -d 4 -p tcp -e 1040 -c 1 -i 35 -a 1 -x {0.0 4.0 7 ------- null}
h -t 0.4408 -s 3 -d 4 -p tcp -e 1040 -c 1 -i 35 -a 1 -x {0.0 4.0 -1 ------- null}
r -t 0.44744 -s 0 -d 1 -p tcp -e 1040 -c 1 -i 38 -a 1 -x {0.0 4.0 9 ------- null}
+ -t 0.44744 -s 1 -d 3 -p tcp -e 1040 -c 1 -i 38 -a 1 -x {0.0 4.0 9 ------- null}
- -t 0.44744 -s 1 -d 3 -p tcp -e 1040 -c 1 -i 38 -a 1 -x {0.0 4.0 9 ------- null}
h -t 0.44744 -s 1 -d 3 -p tcp -e 1040 -c 1 -i 38 -a 1 -x {0.0 4.0 -1 ------- null}
- -t 0.45408 -s 0 -d 1 -p tcp -e 1040 -c 1 -i 41 -a 1 -x {0.0 4.0 11 ------- null}
h -t 0.45408 -s 0 -d 1 -p tcp -e 1040 -c 1 -i 41 -a 1 -x {0.0 4.0 -1 ------- null}
r -t 0.45744 -s 1 -d 3 -p tcp -e 1040 -c 1 -i 36 -a 1 -x {0.0 4.0 8 ------- null}
+ -t 0.45744 -s 3 -d 4 -p tcp -e 1040 -c 1 -i 36 -a 1 -x {0.0 4.0 8 ------- null}
- -t 0.45744 -s 3 -d 4 -p tcp -e 1040 -c 1 -i 36 -a 1 -x {0.0 4.0 8 ------- null}
h -t 0.45744 -s 3 -d 4 -p tcp -e 1040 -c 1 -i 36 -a 1 -x {0.0 4.0 -1 ------- null}
r -t 0.46408 -s 0 -d 1 -p tcp -e 1040 -c 1 -i 39 -a 1 -x {0.0 4.0 10 ------- null}
+ -t 0.46408 -s 1 -d 3 -p tcp -e 1040 -c 1 -i 39 -a 1 -x {0.0 4.0 10 ------- null}
- -t 0.46408 -s 1 -d 3 -p tcp -e 1040 -c 1 -i 39 -a 1 -x {0.0 4.0 10 ------- null}
h -t 0.46408 -s 1 -d 3 -p tcp -e 1040 -c 1 -i 39 -a 1 -x {0.0 4.0 -1 ------- null}
r -t 0.46744 -s 3 -d 4 -p tcp -e 1040 -c 1 -i 35 -a 1 -x {0.0 4.0 7 ------- null}
+ -t 0.46744 -s 4 -d 3 -p ack -e 40 -c 1 -i 45 -a 1 -x {4.0 0.0 7 ------- null}
- -t 0.46744 -s 4 -d 3 -p ack -e 40 -c 1 -i 45 -a 1 -x {4.0 0.0 7 ------- null}
h -t 0.46744 -s 4 -d 3 -p ack -e 40 -c 1 -i 45 -a 1 -x {4.0 0.0 -1 ------- null}
- -t 0.47072 -s 0 -d 1 -p tcp -e 1040 -c 1 -i 42 -a 1 -x {0.0 4.0 12 ------- null}
h -t 0.47072 -s 0 -d 1 -p tcp -e 1040 -c 1 -i 42 -a 1 -x {0.0 4.0 -1 ------- null}
r -t 0.47408 -s 1 -d 3 -p tcp -e 1040 -c 1 -i 38 -a 1 -x {0.0 4.0 9 ------- null}
+ -t 0.47408 -s 3 -d 4 -p tcp -e 1040 -c 1 -i 38 -a 1 -x {0.0 4.0 9 ------- null}
- -t 0.47408 -s 3 -d 4 -p tcp -e 1040 -c 1 -i 38 -a 1 -x {0.0 4.0 9 ------- null}
h -t 0.47408 -s 3 -d 4 -p tcp -e 1040 -c 1 -i 38 -a 1 -x {0.0 4.0 -1 ------- null}
r -t 0.47808 -s 4 -d 3 -p ack -e 40 -c 1 -i 45 -a 1 -x {4.0 0.0 7 ------- null}
+ -t 0.47808 -s 3 -d 1 -p ack -e 40 -c 1 -i 45 -a 1 -x {4.0 0.0 7 ------- null}
- -t 0.47808 -s 3 -d 1 -p ack -e 40 -c 1 -i 45 -a 1 -x {4.0 0.0 7 ------- null}
h -t 0.47808 -s 3 -d 1 -p ack -e 40 -c 1 -i 45 -a 1 -x {4.0 0.0 -1 ------- null}
r -t 0.48072 -s 0 -d 1 -p tcp -e 1040 -c 1 -i 41 -a 1 -x {0.0 4.0 11 ------- null}
+ -t 0.48072 -s 1 -d 3 -p tcp -e 1040 -c 1 -i 41 -a 1 -x {0.0 4.0 11 ------- null}
- -t 0.48072 -s 1 -d 3 -p tcp -e 1040 -c 1 -i 41 -a 1 -x {0.0 4.0 11 ------- null}
h -t 0.48072 -s 1 -d 3 -p tcp -e 1040 -c 1 -i 41 -a 1 -x {0.0 4.0 -1 ------- null}
r -t 0.48408 -s 3 -d 4 -p tcp -e 1040 -c 1 -i 36 -a 1 -x {0.0 4.0 8 ------- null}
+ -t 0.48408 -s 4 -d 3 -p ack -e 40 -c 1 -i 46 -a 1 -x {4.0 0.0 8 ------- null}
- -t 0.48408 -s 4 -d 3 -p ack -e 40 -c 1 -i 46 -a 1 -x {4.0 0.0 8 ------- null}
h -t 0.48408 -s 4 -d 3 -p ack -e 40 -c 1 -i 46 -a 1 -x {4.0 0.0 -1 ------- null}
- -t 0.48736 -s 0 -d 1 -p tcp -e 1040 -c 1 -i 43 -a 1 -x {0.0 4.0 13 ------- null}
h -t 0.48736 -s 0 -d 1 -p tcp -e 1040 -c 1 -i 43 -a 1 -x {0.0 4.0 -1 ------- null}
r -t 0.48872 -s 3 -d 1 -p ack -e 40 -c 1 -i 45 -a 1 -x {4.0 0.0 7 ------- null}
+ -t 0.48872 -s 1 -d 0 -p ack -e 40 -c 1 -i 45 -a 1 -x {4.0 0.0 7 ------- null}
- -t 0.48872 -s 1 -d 0 -p ack -e 40 -c 1 -i 45 -a 1 -x {4.0 0.0 7 ------- null}
h -t 0.48872 -s 1 -d 0 -p ack -e 40 -c 1 -i 45 -a 1 -x {4.0 0.0 -1 ------- null}
r -t 0.49072 -s 1 -d 3 -p tcp -e 1040 -c 1 -i 39 -a 1 -x {0.0 4.0 10 ------- null}
+ -t 0.49072 -s 3 -d 4 -p tcp -e 1040 -c 1 -i 39 -a 1 -x {0.0 4.0 10 ------- null}
- -t 0.49072 -s 3 -d 4 -p tcp -e 1040 -c 1 -i 39 -a 1 -x {0.0 4.0 10 ------- null}
h -t 0.49072 -s 3 -d 4 -p tcp -e 1040 -c 1 -i 39 -a 1 -x {0.0 4.0 -1 ------- null}
r -t 0.49472 -s 4 -d 3 -p ack -e 40 -c 1 -i 46 -a 1 -x {4.0 0.0 8 ------- null}
+ -t 0.49472 -s 3 -d 1 -p ack -e 40 -c 1 -i 46 -a 1 -x {4.0 0.0 8 ------- null}
- -t 0.49472 -s 3 -d 1 -p ack -e 40 -c 1 -i 46 -a 1 -x {4.0 0.0 8 ------- null}
h -t 0.49472 -s 3 -d 1 -p ack -e 40 -c 1 -i 46 -a 1 -x {4.0 0.0 -1 ------- null}
r -t 0.49736 -s 0 -d 1 -p tcp -e 1040 -c 1 -i 42 -a 1 -x {0.0 4.0 12 ------- null}
+ -t 0.49736 -s 1 -d 3 -p tcp -e 1040 -c 1 -i 42 -a 1 -x {0.0 4.0 12 ------- null}
- -t 0.49736 -s 1 -d 3 -p tcp -e 1040 -c 1 -i 42 -a 1 -x {0.0 4.0 12 ------- null}
h -t 0.49736 -s 1 -d 3 -p tcp -e 1040 -c 1 -i 42 -a 1 -x {0.0 4.0 -1 ------- null}
r -t 0.49936 -s 1 -d 0 -p ack -e 40 -c 1 -i 45 -a 1 -x {4.0 0.0 7 ------- null}
+ -t 0.49936 -s 0 -d 1 -p tcp -e 1040 -c 1 -i 47 -a 1 -x {0.0 4.0 15 ------- null}
+ -t 0.49936 -s 0 -d 1 -p tcp -e 1040 -c 1 -i 48 -a 1 -x {0.0 4.0 16 ------- null}