+ 0 1 6 tcp 40 ------- 0 1.0 4.0 0 0
- 0 1 6 tcp 40 ------- 0 1.0 4.0 0 0
r 0.001032 1 6 tcp 40 ------- 0 1.0 4.0 0 0
+ 0.001032 6 7 tcp 40 ------- 0 1.0 4.0 0 0
- 0.001032 6 7 tcp 40 ------- 0 1.0 4.0 0 0
r 0.011352 6 7 tcp 40 ------- 0 1.0 4.0 0 0
+ 0.011352 7 4 tcp 40 ------- 0 1.0 4.0 0 0
- 0.011352 7 4 tcp 40 ------- 0 1.0 4.0 0 0
r 0.012384 7 4 tcp 40 ------- 0 1.0 4.0 0 0
+ 0.012384 4 7 ack 40 ------- 0 4.0 1.0 0 1
- 0.012384 4 7 ack 40 ------- 0 4.0 1.0 0 1
r 0.013416 4 7 ack 40 ------- 0 4.0 1.0 0 1
+ 0.013416 7 6 ack 40 ------- 0 4.0 1.0 0 1
- 0.013416 7 6 ack 40 ------- 0 4.0 1.0 0 1
r 0.023736 7 6 ack 40 ------- 0 4.0 1.0 0 1
+ 0.023736 6 1 ack 40 ------- 0 4.0 1.0 0 1
- 0.023736 6 1 ack 40 ------- 0 4.0 1.0 0 1
r 0.024768 6 1 ack 40 ------- 0 4.0 1.0 0 1
+ 0.024768 1 6 tcp 1040 ------- 0 1.0 4.0 1 2
- 0.024768 1 6 tcp 1040 ------- 0 1.0 4.0 1 2
+ 0.024768 1 6 tcp 1040 ------- 0 1.0 4.0 2 3
- 0.0256 1 6 tcp 1040 ------- 0 1.0 4.0 2 3
r 0.0266 1 6 tcp 1040 ------- 0 1.0 4.0 1 2
+ 0.0266 6 7 tcp 1040 ------- 0 1.0 4.0 1 2
- 0.0266 6 7 tcp 1040 ------- 0 1.0 4.0 1 2
r 0.027432 1 6 tcp 1040 ------- 0 1.0 4.0 2 3
+ 0.027432 6 7 tcp 1040 ------- 0 1.0 4.0 2 3
- 0.03492 6 7 tcp 1040 ------- 0 1.0 4.0 2 3
r 0.04492 6 7 tcp 1040 ------- 0 1.0 4.0 1 2
+ 0.04492 7 4 tcp 1040 ------- 0 1.0 4.0 1 2
- 0.04492 7 4 tcp 1040 ------- 0 1.0 4.0 1 2
r 0.046752 7 4 tcp 1040 ------- 0 1.0 4.0 1 2
+ 0.046752 4 7 ack 40 ------- 0 4.0 1.0 1 4
- 0.046752 4 7 ack 40 ------- 0 4.0 1.0 1 4
r 0.047784 4 7 ack 40 ------- 0 4.0 1.0 1 4
+ 0.047784 7 6 ack 40 ------- 0 4.0 1.0 1 4
- 0.047784 7 6 ack 40 ------- 0 4.0 1.0 1 4
r 0.05324 6 7 tcp 1040 ------- 0 1.0 4.0 2 3
+ 0.05324 7 4 tcp 1040 ------- 0 1.0 4.0 2 3
- 0.05324 7 4 tcp 1040 ------- 0 1.0 4.0 2 3
r 0.055072 7 4 tcp 1040 ------- 0 1.0 4.0 2 3
+ 0.055072 4 7 ack 40 ------- 0 4.0 1.0 2 5
- 0.055072 4 7 ack 40 ------- 0 4.0 1.0 2 5
r 0.056104 4 7 ack 40 ------- 0 4.0 1.0 2 5
+ 0.056104 7 6 ack 40 ------- 0 4.0 1.0 2 5
- 0.056104 7 6 ack 40 ------- 0 4.0 1.0 2 5
r 0.058104 7 6 ack 40 ------- 0 4.0 1.0 1 4
+ 0.058104 6 1 ack 40 ------- 0 4.0 1.0 1 4
- 0.058104 6 1 ack 40 ------- 0 4.0 1.0 1 4
r 0.059136 6 1 ack 40 ------- 0 4.0 1.0 1 4
+ 0.059136 1 6 tcp 1040 ------- 0 1.0 4.0 3 6
- 0.059136 1 6 tcp 1040 ------- 0 1.0 4.0 3 6
+ 0.059136 1 6 tcp 1040 ------- 0 1.0 4.0 4 7
- 0.059968 1 6 tcp 1040 ------- 0 1.0 4.0 4 7
r 0.060968 1 6 tcp 1040 ------- 0 1.0 4.0 3 6
+ 0.060968 6 7 tcp 1040 ------- 0 1.0 4.0 3 6
- 0.060968 6 7 tcp 1040 ------- 0 1.0 4.0 3 6
r 0.0618 1 6 tcp 1040 ------- 0 1.0 4.0 4 7
+ 0.0618 6 7 tcp 1040 ------- 0 1.0 4.0 4 7
r 0.066424 7 6 ack 40 ------- 0 4.0 1.0 2 5
+ 0.066424 6 1 ack 40 ------- 0 4.0 1.0 2 5
- 0.066424 6 1 ack 40 ------- 0 4.0 1.0 2 5
r 0.067456 6 1 ack 40 ------- 0 4.0 1.0 2 5
+ 0.067456 1 6 tcp 1040 ------- 0 1.0 4.0 5 8
- 0.067456 1 6 tcp 1040 ------- 0 1.0 4.0 5 8
+ 0.067456 1 6 tcp 1040 ------- 0 1.0 4.0 6 9
- 0.068288 1 6 tcp 1040 ------- 0 1.0 4.0 6 9
- 0.069288 6 7 tcp 1040 ------- 0 1.0 4.0 4 7
r 0.069288 1 6 tcp 1040 ------- 0 1.0 4.0 5 8
+ 0.069288 6 7 tcp 1040 ------- 0 1.0 4.0 5 8
r 0.07012 1 6 tcp 1040 ------- 0 1.0 4.0 6 9
+ 0.07012 6 7 tcp 1040 ------- 0 1.0 4.0 6 9
- 0.077608 6 7 tcp 1040 ------- 0 1.0 4.0 5 8
r 0.079288 6 7 tcp 1040 ------- 0 1.0 4.0 3 6
+ 0.079288 7 4 tcp 1040 ------- 0 1.0 4.0 3 6
- 0.079288 7 4 tcp 1040 ------- 0 1.0 4.0 3 6
+ 0.08 2 6 exp 1000 ------- 0 2.0 5.0 0 10
- 0.08 2 6 exp 1000 ------- 0 2.0 5.0 0 10
r 0.08112 7 4 tcp 1040 ------- 0 1.0 4.0 3 6
+ 0.08112 4 7 ack 40 ------- 0 4.0 1.0 3 11
- 0.08112 4 7 ack 40 ------- 0 4.0 1.0 3 11
r 0.0818 2 6 exp 1000 ------- 0 2.0 5.0 0 10
+ 0.0818 6 7 exp 1000 ------- 0 2.0 5.0 0 10
r 0.082152 4 7 ack 40 ------- 0 4.0 1.0 3 11
+ 0.082152 7 6 ack 40 ------- 0 4.0 1.0 3 11
- 0.082152 7 6 ack 40 ------- 0 4.0 1.0 3 11
- 0.085928 6 7 tcp 1040 ------- 0 1.0 4.0 6 9
r 0.087608 6 7 tcp 1040 ------- 0 1.0 4.0 4 7
+ 0.087608 7 4 tcp 1040 ------- 0 1.0 4.0 4 7
- 0.087608 7 4 tcp 1040 ------- 0 1.0 4.0 4 7
r 0.08944 7 4 tcp 1040 ------- 0 1.0 4.0 4 7
+ 0.08944 4 7 ack 40 ------- 0 4.0 1.0 4 12
- 0.08944 4 7 ack 40 ------- 0 4.0 1.0 4 12
r 0.090472 4 7 ack 40 ------- 0 4.0 1.0 4 12
+ 0.090472 7 6 ack 40 ------- 0 4.0 1.0 4 12
- 0.090472 7 6 ack 40 ------- 0 4.0 1.0 4 12
r 0.092472 7 6 ack 40 ------- 0 4.0 1.0 3 11
+ 0.092472 6 1 ack 40 ------- 0 4.0 1.0 3 11
- 0.092472 6 1 ack 40 ------- 0 4.0 1.0 3 11
r 0.093504 6 1 ack 40 ------- 0 4.0 1.0 3 11
+ 0.093504 1 6 tcp 1040 ------- 0 1.0 4.0 7 13
- 0.093504 1 6 tcp 1040 ------- 0 1.0 4.0 7 13
+ 0.093504 1 6 tcp 1040 ------- 0 1.0 4.0 8 14
- 0.094248 6 7 exp 1000 ------- 0 2.0 5.0 0 10
- 0.094336 1 6 tcp 1040 ------- 0 1.0 4.0 8 14
r 0.095336 1 6 tcp 1040 ------- 0 1.0 4.0 7 13
+ 0.095336 6 7 tcp 1040 ------- 0 1.0 4.0 7 13
r 0.095928 6 7 tcp 1040 ------- 0 1.0 4.0 5 8
+ 0.095928 7 4 tcp 1040 ------- 0 1.0 4.0 5 8
- 0.095928 7 4 tcp 1040 ------- 0 1.0 4.0 5 8
r 0.096168 1 6 tcp 1040 ------- 0 1.0 4.0 8 14
+ 0.096168 6 7 tcp 1040 ------- 0 1.0 4.0 8 14
r 0.09776 7 4 tcp 1040 ------- 0 1.0 4.0 5 8
+ 0.09776 4 7 ack 40 ------- 0 4.0 1.0 5 15
- 0.09776 4 7 ack 40 ------- 0 4.0 1.0 5 15
r 0.098792 4 7 ack 40 ------- 0 4.0 1.0 5 15
+ 0.098792 7 6 ack 40 ------- 0 4.0 1.0 5 15
- 0.098792 7 6 ack 40 ------- 0 4.0 1.0 5 15
r 0.100792 7 6 ack 40 ------- 0 4.0 1.0 4 12
+ 0.100792 6 1 ack 40 ------- 0 4.0 1.0 4 12
- 0.100792 6 1 ack 40 ------- 0 4.0 1.0 4 12
r 0.101824 6 1 ack 40 ------- 0 4.0 1.0 4 12
+ 0.101824 1 6 tcp 1040 ------- 0 1.0 4.0 9 16
- 0.101824 1 6 tcp 1040 ------- 0 1.0 4.0 9 16
+ 0.101824 1 6 tcp 1040 ------- 0 1.0 4.0 10 17
- 0.102248 6 7 tcp 1040 ------- 0 1.0 4.0 7 13
- 0.102656 1 6 tcp 1040 ------- 0 1.0 4.0 10 17
r 0.103656 1 6 tcp 1040 ------- 0 1.0 4.0 9 16
+ 0.103656 6 7 tcp 1040 ------- 0 1.0 4.0 9 16
r 0.104248 6 7 tcp 1040 ------- 0 1.0 4.0 6 9
+ 0.104248 7 4 tcp 1040 ------- 0 1.0 4.0 6 9
- 0.104248 7 4 tcp 1040 ------- 0 1.0 4.0 6 9
r 0.104488 1 6 tcp 1040 ------- 0 1.0 4.0 10 17
+ 0.104488 6 7 tcp 1040 ------- 0 1.0 4.0 10 17
r 0.10608 7 4 tcp 1040 ------- 0 1.0 4.0 6 9
+ 0.10608 4 7 ack 40 ------- 0 4.0 1.0 6 18
- 0.10608 4 7 ack 40 ------- 0 4.0 1.0 6 18
r 0.107112 4 7 ack 40 ------- 0 4.0 1.0 6 18
+ 0.107112 7 6 ack 40 ------- 0 4.0 1.0 6 18
- 0.107112 7 6 ack 40 ------- 0 4.0 1.0 6 18
r 0.109112 7 6 ack 40 ------- 0 4.0 1.0 5 15
+ 0.109112 6 1 ack 40 ------- 0 4.0 1.0 5 15
- 0.109112 6 1 ack 40 ------- 0 4.0 1.0 5 15
r 0.110144 6 1 ack 40 ------- 0 4.0 1.0 5 15
+ 0.110144 1 6 tcp 1040 ------- 0 1.0 4.0 11 19
- 0.110144 1 6 tcp 1040 ------- 0 1.0 4.0 11 19
+ 0.110144 1 6 tcp 1040 ------- 0 1.0 4.0 12 20
- 0.110568 6 7 tcp 1040 ------- 0 1.0 4.0 8 14
- 0.110976 1 6 tcp 1040 ------- 0 1.0 4.0 12 20
r 0.111976 1 6 tcp 1040 ------- 0 1.0 4.0 11 19
+ 0.111976 6 7 tcp 1040 ------- 0 1.0 4.0 11 19
r 0.112248 6 7 exp 1000 ------- 0 2.0 5.0 0 10
+ 0.112248 7 5 exp 1000 ------- 0 2.0 5.0 0 10
- 0.112248 7 5 exp 1000 ------- 0 2.0 5.0 0 10
r 0.112808 1 6 tcp 1040 ------- 0 1.0 4.0 12 20
+ 0.112808 6 7 tcp 1040 ------- 0 1.0 4.0 12 20
r 0.114048 7 5 exp 1000 ------- 0 2.0 5.0 0 10
r 0.117432 7 6 ack 40 ------- 0 4.0 1.0 6 18
+ 0.117432 6 1 ack 40 ------- 0 4.0 1.0 6 18
- 0.117432 6 1 ack 40 ------- 0 4.0 1.0 6 18
r 0.118464 6 1 ack 40 ------- 0 4.0 1.0 6 18
+ 0.118464 1 6 tcp 1040 ------- 0 1.0 4.0 13 21
- 0.118464 1 6 tcp 1040 ------- 0 1.0 4.0 13 21
+ 0.118464 1 6 tcp 1040 ------- 0 1.0 4.0 14 22
- 0.118888 6 7 tcp 1040 ------- 0 1.0 4.0 9 16
- 0.119296 1 6 tcp 1040 ------- 0 1.0 4.0 14 22
r 0.120296 1 6 tcp 1040 ------- 0 1.0 4.0 13 21
+ 0.120296 6 7 tcp 1040 ------- 0 1.0 4.0 13 21
r 0.120568 6 7 tcp 1040 ------- 0 1.0 4.0 7 13
+ 0.120568 7 4 tcp 1040 ------- 0 1.0 4.0 7 13
- 0.120568 7 4 tcp 1040 ------- 0 1.0 4.0 7 13
r 0.121128 1 6 tcp 1040 ------- 0 1.0 4.0 14 22
+ 0.121128 6 7 tcp 1040 ------- 0 1.0 4.0 14 22
r 0.1224 7 4 tcp 1040 ------- 0 1.0 4.0 7 13
+ 0.1224 4 7 ack 40 ------- 0 4.0 1.0 7 23
- 0.1224 4 7 ack 40 ------- 0 4.0 1.0 7 23
r 0.123432 4 7 ack 40 ------- 0 4.0 1.0 7 23
+ 0.123432 7 6 ack 40 ------- 0 4.0 1.0 7 23
- 0.123432 7 6 ack 40 ------- 0 4.0 1.0 7 23
- 0.127208 6 7 tcp 1040 ------- 0 1.0 4.0 10 17
r 0.128888 6 7 tcp 1040 ------- 0 1.0 4.0 8 14
+ 0.128888 7 4 tcp 1040 ------- 0 1.0 4.0 8 14
- 0.128888 7 4 tcp 1040 ------- 0 1.0 4.0 8 14
r 0.13072 7 4 tcp 1040 ------- 0 1.0 4.0 8 14
+ 0.13072 4 7 ack 40 ------- 0 4.0 1.0 8 24
- 0.13072 4 7 ack 40 ------- 0 4.0 1.0 8 24
r 0.131752 4 7 ack 40 ------- 0 4.0 1.0 8 24
+ 0.131752 7 6 ack 40 ------- 0 4.0 1.0 8 24
- 0.131752 7 6 ack 40 ------- 0 4.0 1.0 8 24
r 0.133752 7 6 ack 40 ------- 0 4.0 1.0 7 23
+ 0.133752 6 1 ack 40 ------- 0 4.0 1.0 7 23
- 0.133752 6 1 ack 40 ------- 0 4.0 1.0 7 23
r 0.134784 6 1 ack 40 ------- 0 4.0 1.0 7 23
+ 0.134784 1 6 tcp 1040 ------- 0 1.0 4.0 15 25
- 0.134784 1 6 tcp 1040 ------- 0 1.0 4.0 15 25
+ 0.134784 1 6 tcp 1040 ------- 0 1.0 4.0 16 26
- 0.135528 6 7 tcp 1040 ------- 0 1.0 4.0 11 19
- 0.135616 1 6 tcp 1040 ------- 0 1.0 4.0 16 26
r 0.136616 1 6 tcp 1040 ------- 0 1.0 4.0 15 25
+ 0.136616 6 7 tcp 1040 ------- 0 1.0 4.0 15 25
r 0.137208 6 7 tcp 1040 ------- 0 1.0 4.0 9 16
+ 0.137208 7 4 tcp 1040 ------- 0 1.0 4.0 9 16
- 0.137208 7 4 tcp 1040 ------- 0 1.0 4.0 9 16
r 0.137448 1 6 tcp 1040 ------- 0 1.0 4.0 16 26
+ 0.137448 6 7 tcp 1040 ------- 0 1.0 4.0 16 26
r 0.13904 7 4 tcp 1040 ------- 0 1.0 4.0 9 16
+ 0.13904 4 7 ack 40 ------- 0 4.0 1.0 9 27
- 0.13904 4 7 ack 40 ------- 0 4.0 1.0 9 27
r 0.140072 4 7 ack 40 ------- 0 4.0 1.0 9 27
+ 0.140072 7 6 ack 40 ------- 0 4.0 1.0 9 27
- 0.140072 7 6 ack 40 ------- 0 4.0 1.0 9 27
r 0.142072 7 6 ack 40 ------- 0 4.0 1.0 8 24
+ 0.142072 6 1 ack 40 ------- 0 4.0 1.0 8 24
- 0.142072 6 1 ack 40 ------- 0 4.0 1.0 8 24
r 0.143104 6 1 ack 40 ------- 0 4.0 1.0 8 24
+ 0.143104 1 6 tcp 1040 ------- 0 1.0 4.0 17 28
- 0.143104 1 6 tcp 1040 ------- 0 1.0 4.0 17 28
+ 0.143104 1 6 tcp 1040 ------- 0 1.0 4.0 18 29
- 0.143848 6 7 tcp 1040 ------- 0 1.0 4.0 12 20
- 0.143936 1 6 tcp 1040 ------- 0 1.0 4.0 18 29
r 0.144936 1 6 tcp 1040 ------- 0 1.0 4.0 17 28
+ 0.144936 6 7 tcp 1040 ------- 0 1.0 4.0 17 28
r 0.145528 6 7 tcp 1040 ------- 0 1.0 4.0 10 17
+ 0.145528 7 4 tcp 1040 ------- 0 1.0 4.0 10 17
- 0.145528 7 4 tcp 1040 ------- 0 1.0 4.0 10 17
r 0.145768 1 6 tcp 1040 ------- 0 1.0 4.0 18 29
+ 0.145768 6 7 tcp 1040 ------- 0 1.0 4.0 18 29
r 0.14736 7 4 tcp 1040 ------- 0 1.0 4.0 10 17
+ 0.14736 4 7 ack 40 ------- 0 4.0 1.0 10 30
- 0.14736 4 7 ack 40 ------- 0 4.0 1.0 10 30
r 0.148392 4 7 ack 40 ------- 0 4.0 1.0 10 30
+ 0.148392 7 6 ack 40 ------- 0 4.0 1.0 10 30
- 0.148392 7 6 ack 40 ------- 0 4.0 1.0 10 30
r 0.150392 7 6 ack 40 ------- 0 4.0 1.0 9 27
+ 0.150392 6 1 ack 40 ------- 0 4.0 1.0 9 27
- 0.150392 6 1 ack 40 ------- 0 4.0 1.0 9 27
r 0.151424 6 1 ack 40 ------- 0 4.0 1.0 9 27
+ 0.151424 1 6 tcp 1040 ------- 0 1.0 4.0 19 31
- 0.151424 1 6 tcp 1040 ------- 0 1.0 4.0 19 31
+ 0.151424 1 6 tcp 1040 ------- 0 1.0 4.0 20 32
- 0.152168 6 7 tcp 1040 ------- 0 1.0 4.0 13 21
- 0.152256 1 6 tcp 1040 ------- 0 1.0 4.0 20 32
r 0.153256 1 6 tcp 1040 ------- 0 1.0 4.0 19 31
+ 0.153256 6 7 tcp 1040 ------- 0 1.0 4.0 19 31
r 0.153848 6 7 tcp 1040 ------- 0 1.0 4.0 11 19
+ 0.153848 7 4 tcp 1040 ------- 0 1.0 4.0 11 19
- 0.153848 7 4 tcp 1040 ------- 0 1.0 4.0 11 19
r 0.154088 1 6 tcp 1040 ------- 0 1.0 4.0 20 32
+ 0.154088 6 7 tcp 1040 ------- 0 1.0 4.0 20 32
r 0.15568 7 4 tcp 1040 ------- 0 1.0 4.0 11 19
+ 0.15568 4 7 ack 40 ------- 0 4.0 1.0 11 33
- 0.15568 4 7 ack 40 ------- 0 4.0 1.0 11 33
r 0.156712 4 7 ack 40 ------- 0 4.0 1.0 11 33
+ 0.156712 7 6 ack 40 ------- 0 4.0 1.0 11 33
- 0.156712 7 6 ack 40 ------- 0 4.0 1.0 11 33
r 0.158712 7 6 ack 40 ------- 0 4.0 1.0 10 30
+ 0.158712 6 1 ack 40 ------- 0 4.0 1.0 10 30
- 0.158712 6 1 ack 40 ------- 0 4.0 1.0 10 30
r 0.159744 6 1 ack 40 ------- 0 4.0 1.0 10 30
+ 0.159744 1 6 tcp 1040 ------- 0 1.0 4.0 21 34
- 0.159744 1 6 tcp 1040 ------- 0 1.0 4.0 21 34
+ 0.159744 1 6 tcp 1040 ------- 0 1.0 4.0 22 35
+ 0.16 2 6 exp 1000 ------- 0 2.0 5.0 1 36
- 0.16 2 6 exp 1000 ------- 0 2.0 5.0 1 36
- 0.160488 6 7 tcp 1040 ------- 0 1.0 4.0 14 22
- 0.160576 1 6 tcp 1040 ------- 0 1.0 4.0 22 35
r 0.161576 1 6 tcp 1040 ------- 0 1.0 4.0 21 34
+ 0.161576 6 7 tcp 1040 ------- 0 1.0 4.0 21 34
r 0.1618 2 6 exp 1000 ------- 0 2.0 5.0 1 36
+ 0.1618 6 7 exp 1000 ------- 0 2.0 5.0 1 36
r 0.162168 6 7 tcp 1040 ------- 0 1.0 4.0 12 20
+ 0.162168 7 4 tcp 1040 ------- 0 1.0 4.0 12 20
- 0.162168 7 4 tcp 1040 ------- 0 1.0 4.0 12 20
r 0.162408 1 6 tcp 1040 ------- 0 1.0 4.0 22 35
+ 0.162408 6 7 tcp 1040 ------- 0 1.0 4.0 22 35
r 0.164 7 4 tcp 1040 ------- 0 1.0 4.0 12 20
+ 0.164 4 7 ack 40 ------- 0 4.0 1.0 12 37
- 0.164 4 7 ack 40 ------- 0 4.0 1.0 12 37
r 0.165032 4 7 ack 40 ------- 0 4.0 1.0 12 37
+ 0.165032 7 6 ack 40 ------- 0 4.0 1.0 12 37
- 0.165032 7 6 ack 40 ------- 0 4.0 1.0 12 37
r 0.167032 7 6 ack 40 ------- 0 4.0 1.0 11 33
+ 0.167032 6 1 ack 40 ------- 0 4.0 1.0 11 33
- 0.167032 6 1 ack 40 ------- 0 4.0 1.0 11 33
r 0.168064 6 1 ack 40 ------- 0 4.0 1.0 11 33
+ 0.168064 1 6 tcp 1040 ------- 0 1.0 4.0 23 38
- 0.168064 1 6 tcp 1040 ------- 0 1.0 4.0 23 38
+ 0.168064 1 6 tcp 1040 ------- 0 1.0 4.0 24 39
- 0.168808 6 7 tcp 1040 ------- 0 1.0 4.0 15 25
- 0.168896 1 6 tcp 1040 ------- 0 1.0 4.0 24 39
r 0.169896 1 6 tcp 1040 ------- 0 1.0 4.0 23 38
+ 0.169896 6 7 tcp 1040 ------- 0 1.0 4.0 23 38
r 0.170488 6 7 tcp 1040 ------- 0 1.0 4.0 13 21
+ 0.170488 7 4 tcp 1040 ------- 0 1.0 4.0 13 21
- 0.170488 7 4 tcp 1040 ------- 0 1.0 4.0 13 21
r 0.170728 1 6 tcp 1040 ------- 0 1.0 4.0 24 39
+ 0.170728 6 7 tcp 1040 ------- 0 1.0 4.0 24 39
r 0.17232 7 4 tcp 1040 ------- 0 1.0 4.0 13 21
+ 0.17232 4 7 ack 40 ------- 0 4.0 1.0 13 40
- 0.17232 4 7 ack 40 ------- 0 4.0 1.0 13 40
r 0.173352 4 7 ack 40 ------- 0 4.0 1.0 13 40
+ 0.173352 7 6 ack 40 ------- 0 4.0 1.0 13 40
- 0.173352 7 6 ack 40 ------- 0 4.0 1.0 13 40
r 0.175352 7 6 ack 40 ------- 0 4.0 1.0 12 37
+ 0.175352 6 1 ack 40 ------- 0 4.0 1.0 12 37
- 0.175352 6 1 ack 40 ------- 0 4.0 1.0 12 37
r 0.176384 6 1 ack 40 ------- 0 4.0 1.0 12 37
+ 0.176384 1 6 tcp 1040 ------- 0 1.0 4.0 25 41
- 0.176384 1 6 tcp 1040 ------- 0 1.0 4.0 25 41
+ 0.176384 1 6 tcp 1040 ------- 0 1.0 4.0 26 42
- 0.177128 6 7 tcp 1040 ------- 0 1.0 4.0 16 26
- 0.177216 1 6 tcp 1040 ------- 0 1.0 4.0 26 42
r 0.178216 1 6 tcp 1040 ------- 0 1.0 4.0 25 41
+ 0.178216 6 7 tcp 1040 ------- 0 1.0 4.0 25 41
r 0.178808 6 7 tcp 1040 ------- 0 1.0 4.0 14 22
+ 0.178808 7 4 tcp 1040 ------- 0 1.0 4.0 14 22
- 0.178808 7 4 tcp 1040 ------- 0 1.0 4.0 14 22
r 0.179048 1 6 tcp 1040 ------- 0 1.0 4.0 26 42
+ 0.179048 6 7 tcp 1040 ------- 0 1.0 4.0 26 42
r 0.18064 7 4 tcp 1040 ------- 0 1.0 4.0 14 22
+ 0.18064 4 7 ack 40 ------- 0 4.0 1.0 14 43
- 0.18064 4 7 ack 40 ------- 0 4.0 1.0 14 43
r 0.181672 4 7 ack 40 ------- 0 4.0 1.0 14 43
+ 0.181672 7 6 ack 40 ------- 0 4.0 1.0 14 43
- 0.181672 7 6 ack 40 ------- 0 4.0 1.0 14 43
r 0.183672 7 6 ack 40 ------- 0 4.0 1.0 13 40
+ 0.183672 6 1 ack 40 ------- 0 4.0 1.0 13 40
- 0.183672 6 1 ack 40 ------- 0 4.0 1.0 13 40
r 0.184704 6 1 ack 40 ------- 0 4.0 1.0 13 40
+ 0.184704 1 6 tcp 1040 ------- 0 1.0 4.0 27 44
- 0.184704 1 6 tcp 1040 ------- 0 1.0 4.0 27 44
+ 0.184704 1 6 tcp 1040 ------- 0 1.0 4.0 28 45
- 0.185448 6 7 tcp 1040 ------- 0 1.0 4.0 17 28
- 0.185536 1 6 tcp 1040 ------- 0 1.0 4.0 28 45
r 0.186536 1 6 tcp 1040 ------- 0 1.0 4.0 27 44
+ 0.186536 6 7 tcp 1040 ------- 0 1.0 4.0 27 44
r 0.187128 6 7 tcp 1040 ------- 0 1.0 4.0 15 25
+ 0.187128 7 4 tcp 1040 ------- 0 1.0 4.0 15 25
- 0.187128 7 4 tcp 1040 ------- 0 1.0 4.0 15 25
r 0.187368 1 6 tcp 1040 ------- 0 1.0 4.0 28 45
+ 0.187368 6 7 tcp 1040 ------- 0 1.0 4.0 28 45
r 0.18896 7 4 tcp 1040 ------- 0 1.0 4.0 15 25
+ 0.18896 4 7 ack 40 ------- 0 4.0 1.0 15 46
- 0.18896 4 7 ack 40 ------- 0 4.0 1.0 15 46
r 0.189992 4 7 ack 40 ------- 0 4.0 1.0 15 46
+ 0.189992 7 6 ack 40 ------- 0 4.0 1.0 15 46
- 0.189992 7 6 ack 40 ------- 0 4.0 1.0 15 46
r 0.191992 7 6 ack 40 ------- 0 4.0 1.0 14 43
+ 0.191992 6 1 ack 40 ------- 0 4.0 1.0 14 43
- 0.191992 6 1 ack 40 ------- 0 4.0 1.0 14 43
r 0.193024 6 1 ack 40 ------- 0 4.0 1.0 14 43
+ 0.193024 1 6 tcp 1040 ------- 0 1.0 4.0 29 47
- 0.193024 1 6 tcp 1040 ------- 0 1.0 4.0 29 47
+ 0.193024 1 6 tcp 1040 ------- 0 1.0 4.0 30 48
- 0.193768 6 7 tcp 1040 ------- 0 1.0 4.0 18 29
- 0.193856 1 6 tcp 1040 ------- 0 1.0 4.0 30 48
r 0.194856 1 6 tcp 1040 ------- 0 1.0 4.0 29 47
+ 0.194856 6 7 tcp 1040 ------- 0 1.0 4.0 29 47
r 0.195448 6 7 tcp 1040 ------- 0 1.0 4.0 16 26
+ 0.195448 7 4 tcp 1040 ------- 0 1.0 4.0 16 26
- 0.195448 7 4 tcp 1040 ------- 0 1.0 4.0 16 26
r 0.195688 1 6 tcp 1040 ------- 0 1.0 4.0 30 48
+ 0.195688 6 7 tcp 1040 ------- 0 1.0 4.0 30 48
r 0.19728 7 4 tcp 1040 ------- 0 1.0 4.0 16 26
+ 0.19728 4 7 ack 40 ------- 0 4.0 1.0 16 49
- 0.19728 4 7 ack 40 ------- 0 4.0 1.0 16 49
r 0.198312 4 7 ack 40 ------- 0 4.0 1.0 16 49
+ 0.198312 7 6 ack 40 ------- 0 4.0 1.0 16 49
- 0.198312 7 6 ack 40 ------- 0 4.0 1.0 16 49
r 0.200312 7 6 ack 40 ------- 0 4.0 1.0 15 46
+ 0.200312 6 1 ack 40 ------- 0 4.0 1.0 15 46
- 0.200312 6 1 ack 40 ------- 0 4.0 1.0 15 46
r 0.201344 6 1 ack 40 ------- 0 4.0 1.0 15 46
+ 0.201344 1 6 tcp 1040 ------- 0 1.0 4.0 31 50
- 0.201344 1 6 tcp 1040 ------- 0 1.0 4.0 31 50
+ 0.201344 1 6 tcp 1040 ------- 0 1.0 4.0 32 51
- 0.202088 6 7 tcp 1040 ------- 0 1.0 4.0 19 31
- 0.202176 1 6 tcp 1040 ------- 0 1.0 4.0 32 51
r 0.203176 1 6 tcp 1040 ------- 0 1.0 4.0 31 50
+ 0.203176 6 7 tcp 1040 ------- 0 1.0 4.0 31 50
r 0.203768 6 7 tcp 1040 ------- 0 1.0 4.0 17 28
+ 0.203768 7 4 tcp 1040 ------- 0 1.0 4.0 17 28
- 0.203768 7 4 tcp 1040 ------- 0 1.0 4.0 17 28
r 0.204008 1 6 tcp 1040 ------- 0 1.0 4.0 32 51
+ 0.204008 6 7 tcp 1040 ------- 0 1.0 4.0 32 51
r 0.2056 7 4 tcp 1040 ------- 0 1.0 4.0 17 28
+ 0.2056 4 7 ack 40 ------- 0 4.0 1.0 17 52
- 0.2056 4 7 ack 40 ------- 0 4.0 1.0 17 52
r 0.206632 4 7 ack 40 ------- 0 4.0 1.0 17 52
+ 0.206632 7 6 ack 40 ------- 0 4.0 1.0 17 52
- 0.206632 7 6 ack 40 ------- 0 4.0 1.0 17 52
r 0.208632 7 6 ack 40 ------- 0 4.0 1.0 16 49
+ 0.208632 6 1 ack 40 ------- 0 4.0 1.0 16 49
- 0.208632 6 1 ack 40 ------- 0 4.0 1.0 16 49
r 0.209664 6 1 ack 40 ------- 0 4.0 1.0 16 49
+ 0.209664 1 6 tcp 1040 ------- 0 1.0 4.0 33 53
- 0.209664 1 6 tcp 1040 ------- 0 1.0 4.0 33 53
+ 0.209664 1 6 tcp 1040 ------- 0 1.0 4.0 34 54
- 0.210408 6 7 tcp 1040 ------- 0 1.0 4.0 20 32
- 0.210496 1 6 tcp 1040 ------- 0 1.0 4.0 34 54
r 0.211496 1 6 tcp 1040 ------- 0 1.0 4.0 33 53
+ 0.211496 6 7 tcp 1040 ------- 0 1.0 4.0 33 53
r 0.212088 6 7 tcp 1040 ------- 0 1.0 4.0 18 29
+ 0.212088 7 4 tcp 1040 ------- 0 1.0 4.0 18 29
- 0.212088 7 4 tcp 1040 ------- 0 1.0 4.0 18 29
r 0.212328 1 6 tcp 1040 ------- 0 1.0 4.0 34 54
+ 0.212328 6 7 tcp 1040 ------- 0 1.0 4.0 34 54
r 0.21392 7 4 tcp 1040 ------- 0 1.0 4.0 18 29
+ 0.21392 4 7 ack 40 ------- 0 4.0 1.0 18 55
- 0.21392 4 7 ack 40 ------- 0 4.0 1.0 18 55
r 0.214952 4 7 ack 40 ------- 0 4.0 1.0 18 55
+ 0.214952 7 6 ack 40 ------- 0 4.0 1.0 18 55
- 0.214952 7 6 ack 40 ------- 0 4.0 1.0 18 55
r 0.216952 7 6 ack 40 ------- 0 4.0 1.0 17 52
+ 0.216952 6 1 ack 40 ------- 0 4.0 1.0 17 52
- 0.216952 6 1 ack 40 ------- 0 4.0 1.0 17 52
r 0.217984 6 1 ack 40 ------- 0 4.0 1.0 17 52
+ 0.217984 1 6 tcp 1040 ------- 0 1.0 4.0 35 56
- 0.217984 1 6 tcp 1040 ------- 0 1.0 4.0 35 56
+ 0.217984 1 6 tcp 1040 ------- 0 1.0 4.0 36 57
- 0.218728 6 7 tcp 1040 ------- 0 1.0 4.0 21 34
- 0.218816 1 6 tcp 1040 ------- 0 1.0 4.0 36 57
r 0.219816 1 6 tcp 1040 ------- 0 1.0 4.0 35 56
+ 0.219816 6 7 tcp 1040 ------- 0 1.0 4.0 35 56
r 0.220408 6 7 tcp 1040 ------- 0 1.0 4.0 19 31
+ 0.220408 7 4 tcp 1040 ------- 0 1.0 4.0 19 31
- 0.220408 7 4 tcp 1040 ------- 0 1.0 4.0 19 31
r 0.220648 1 6 tcp 1040 ------- 0 1.0 4.0 36 57
+ 0.220648 6 7 tcp 1040 ------- 0 1.0 4.0 36 57
r 0.22224 7 4 tcp 1040 ------- 0 1.0 4.0 19 31
+ 0.22224 4 7 ack 40 ------- 0 4.0 1.0 19 58
- 0.22224 4 7 ack 40 ------- 0 4.0 1.0 19 58
r 0.223272 4 7 ack 40 ------- 0 4.0 1.0 19 58
+ 0.223272 7 6 ack 40 ------- 0 4.0 1.0 19 58
- 0.223272 7 6 ack 40 ------- 0 4.0 1.0 19 58
r 0.225272 7 6 ack 40 ------- 0 4.0 1.0 18 55
+ 0.225272 6 1 ack 40 ------- 0 4.0 1.0 18 55
- 0.225272 6 1 ack 40 ------- 0 4.0 1.0 18 55
r 0.226304 6 1 ack 40 ------- 0 4.0 1.0 18 55
+ 0.226304 1 6 tcp 1040 ------- 0 1.0 4.0 37 59
- 0.226304 1 6 tcp 1040 ------- 0 1.0 4.0 37 59
+ 0.226304 1 6 tcp 1040 ------- 0 1.0 4.0 38 60
- 0.227048 6 7 exp 1000 ------- 0 2.0 5.0 1 36
- 0.227136 1 6 tcp 1040 ------- 0 1.0 4.0 38 60
r 0.228136 1 6 tcp 1040 ------- 0 1.0 4.0 37 59
+ 0.228136 6 7 tcp 1040 ------- 0 1.0 4.0 37 59
r 0.228728 6 7 tcp 1040 ------- 0 1.0 4.0 20 32
+ 0.228728 7 4 tcp 1040 ------- 0 1.0 4.0 20 32
- 0.228728 7 4 tcp 1040 ------- 0 1.0 4.0 20 32
r 0.228968 1 6 tcp 1040 ------- 0 1.0 4.0 38 60
+ 0.228968 6 7 tcp 1040 ------- 0 1.0 4.0 38 60
r 0.23056 7 4 tcp 1040 ------- 0 1.0 4.0 20 32
+ 0.23056 4 7 ack 40 ------- 0 4.0 1.0 20 61
- 0.23056 4 7 ack 40 ------- 0 4.0 1.0 20 61
r 0.231592 4 7 ack 40 ------- 0 4.0 1.0 20 61
+ 0.231592 7 6 ack 40 ------- 0 4.0 1.0 20 61
- 0.231592 7 6 ack 40 ------- 0 4.0 1.0 20 61
r 0.233592 7 6 ack 40 ------- 0 4.0 1.0 19 58
+ 0.233592 6 1 ack 40 ------- 0 4.0 1.0 19 58
- 0.233592 6 1 ack 40 ------- 0 4.0 1.0 19 58
r 0.234624 6 1 ack 40 ------- 0 4.0 1.0 19 58
+ 0.234624 1 6 tcp 1040 ------- 0 1.0 4.0 39 62
- 0.234624 1 6 tcp 1040 ------- 0 1.0 4.0 39 62
- 0.235048 6 7 tcp 1040 ------- 0 1.0 4.0 22 35
r 0.236456 1 6 tcp 1040 ------- 0 1.0 4.0 39 62
+ 0.236456 6 7 tcp 1040 ------- 0 1.0 4.0 39 62
r 0.237048 6 7 tcp 1040 ------- 0 1.0 4.0 21 34
+ 0.237048 7 4 tcp 1040 ------- 0 1.0 4.0 21 34
- 0.237048 7 4 tcp 1040 ------- 0 1.0 4.0 21 34
r 0.23888 7 4 tcp 1040 ------- 0 1.0 4.0 21 34
+ 0.23888 4 7 ack 40 ------- 0 4.0 1.0 21 63
- 0.23888 4 7 ack 40 ------- 0 4.0 1.0 21 63
r 0.239912 4 7 ack 40 ------- 0 4.0 1.0 21 63
+ 0.239912 7 6 ack 40 ------- 0 4.0 1.0 21 63
- 0.239912 7 6 ack 40 ------- 0 4.0 1.0 21 63
+ 0.24 2 6 exp 1000 ------- 0 2.0 5.0 2 64
- 0.24 2 6 exp 1000 ------- 0 2.0 5.0 2 64
r 0.2418 2 6 exp 1000 ------- 0 2.0 5.0 2 64
+ 0.2418 6 7 exp 1000 ------- 0 2.0 5.0 2 64
r 0.241912 7 6 ack 40 ------- 0 4.0 1.0 20 61
+ 0.241912 6 1 ack 40 ------- 0 4.0 1.0 20 61
- 0.241912 6 1 ack 40 ------- 0 4.0 1.0 20 61
r 0.242944 6 1 ack 40 ------- 0 4.0 1.0 20 61
+ 0.242944 1 6 tcp 1040 ------- 0 1.0 4.0 40 65
- 0.242944 1 6 tcp 1040 ------- 0 1.0 4.0 40 65
- 0.243368 6 7 tcp 1040 ------- 0 1.0 4.0 23 38
r 0.244776 1 6 tcp 1040 ------- 0 1.0 4.0 40 65
+ 0.244776 6 7 tcp 1040 ------- 0 1.0 4.0 40 65
r 0.245048 6 7 exp 1000 ------- 0 2.0 5.0 1 36
+ 0.245048 7 5 exp 1000 ------- 0 2.0 5.0 1 36
- 0.245048 7 5 exp 1000 ------- 0 2.0 5.0 1 36
r 0.246848 7 5 exp 1000 ------- 0 2.0 5.0 1 36
r 0.250232 7 6 ack 40 ------- 0 4.0 1.0 21 63
+ 0.250232 6 1 ack 40 ------- 0 4.0 1.0 21 63
- 0.250232 6 1 ack 40 ------- 0 4.0 1.0 21 63
r 0.251264 6 1 ack 40 ------- 0 4.0 1.0 21 63
+ 0.251264 1 6 tcp 1040 ------- 0 1.0 4.0 41 66
- 0.251264 1 6 tcp 1040 ------- 0 1.0 4.0 41 66
- 0.251688 6 7 tcp 1040 ------- 0 1.0 4.0 24 39
r 0.253096 1 6 tcp 1040 ------- 0 1.0 4.0 41 66
+ 0.253096 6 7 tcp 1040 ------- 0 1.0 4.0 41 66
r 0.253368 6 7 tcp 1040 ------- 0 1.0 4.0 22 35
+ 0.253368 7 4 tcp 1040 ------- 0 1.0 4.0 22 35
- 0.253368 7 4 tcp 1040 ------- 0 1.0 4.0 22 35
r 0.2552 7 4 tcp 1040 ------- 0 1.0 4.0 22 35
+ 0.2552 4 7 ack 40 ------- 0 4.0 1.0 22 67
- 0.2552 4 7 ack 40 ------- 0 4.0 1.0 22 67
r 0.256232 4 7 ack 40 ------- 0 4.0 1.0 22 67
+ 0.256232 7 6 ack 40 ------- 0 4.0 1.0 22 67
- 0.256232 7 6 ack 40 ------- 0 4.0 1.0 22 67
- 0.260008 6 7 tcp 1040 ------- 0 1.0 4.0 25 41
r 0.261688 6 7 tcp 1040 ------- 0 1.0 4.0 23 38
+ 0.261688 7 4 tcp 1040 ------- 0 1.0 4.0 23 38
- 0.261688 7 4 tcp 1040 ------- 0 1.0 4.0 23 38
r 0.26352 7 4 tcp 1040 ------- 0 1.0 4.0 23 38
+ 0.26352 4 7 ack 40 ------- 0 4.0 1.0 23 68
- 0.26352 4 7 ack 40 ------- 0 4.0 1.0 23 68
r 0.264552 4 7 ack 40 ------- 0 4.0 1.0 23 68
+ 0.264552 7 6 ack 40 ------- 0 4.0 1.0 23 68
- 0.264552 7 6 ack 40 ------- 0 4.0 1.0 23 68
r 0.266552 7 6 ack 40 ------- 0 4.0 1.0 22 67
+ 0.266552 6 1 ack 40 ------- 0 4.0 1.0 22 67
- 0.266552 6 1 ack 40 ------- 0 4.0 1.0 22 67
r 0.267584 6 1 ack 40 ------- 0 4.0 1.0 22 67
+ 0.267584 1 6 tcp 1040 ------- 0 1.0 4.0 42 69
- 0.267584 1 6 tcp 1040 ------- 0 1.0 4.0 42 69
- 0.268328 6 7 tcp 1040 ------- 0 1.0 4.0 26 42
r 0.269416 1 6 tcp 1040 ------- 0 1.0 4.0 42 69
+ 0.269416 6 7 tcp 1040 ------- 0 1.0 4.0 42 69
r 0.270008 6 7 tcp 1040 ------- 0 1.0 4.0 24 39
+ 0.270008 7 4 tcp 1040 ------- 0 1.0 4.0 24 39
- 0.270008 7 4 tcp 1040 ------- 0 1.0 4.0 24 39
r 0.27184 7 4 tcp 1040 ------- 0 1.0 4.0 24 39
+ 0.27184 4 7 ack 40 ------- 0 4.0 1.0 24 70
- 0.27184 4 7 ack 40 ------- 0 4.0 1.0 24 70
r 0.272872 4 7 ack 40 ------- 0 4.0 1.0 24 70
+ 0.272872 7 6 ack 40 ------- 0 4.0 1.0 24 70
- 0.272872 7 6 ack 40 ------- 0 4.0 1.0 24 70
r 0.274872 7 6 ack 40 ------- 0 4.0 1.0 23 68
+ 0.274872 6 1 ack 40 ------- 0 4.0 1.0 23 68
- 0.274872 6 1 ack 40 ------- 0 4.0 1.0 23 68
r 0.275904 6 1 ack 40 ------- 0 4.0 1.0 23 68
+ 0.275904 1 6 tcp 1040 ------- 0 1.0 4.0 43 71
- 0.275904 1 6 tcp 1040 ------- 0 1.0 4.0 43 71
- 0.276648 6 7 tcp 1040 ------- 0 1.0 4.0 27 44
r 0.277736 1 6 tcp 1040 ------- 0 1.0 4.0 43 71
+ 0.277736 6 7 tcp 1040 ------- 0 1.0 4.0 43 71
r 0.278328 6 7 tcp 1040 ------- 0 1.0 4.0 25 41
+ 0.278328 7 4 tcp 1040 ------- 0 1.0 4.0 25 41
- 0.278328 7 4 tcp 1040 ------- 0 1.0 4.0 25 41
r 0.28016 7 4 tcp 1040 ------- 0 1.0 4.0 25 41
+ 0.28016 4 7 ack 40 ------- 0 4.0 1.0 25 72
- 0.28016 4 7 ack 40 ------- 0 4.0 1.0 25 72
r 0.281192 4 7 ack 40 ------- 0 4.0 1.0 25 72
+ 0.281192 7 6 ack 40 ------- 0 4.0 1.0 25 72
- 0.281192 7 6 ack 40 ------- 0 4.0 1.0 25 72
r 0.283192 7 6 ack 40 ------- 0 4.0 1.0 24 70
+ 0.283192 6 1 ack 40 ------- 0 4.0 1.0 24 70
- 0.283192 6 1 ack 40 ------- 0 4.0 1.0 24 70
r 0.284224 6 1 ack 40 ------- 0 4.0 1.0 24 70
+ 0.284224 1 6 tcp 1040 ------- 0 1.0 4.0 44 73
- 0.284224 1 6 tcp 1040 ------- 0 1.0 4.0 44 73
- 0.284968 6 7 tcp 1040 ------- 0 1.0 4.0 28 45
r 0.286056 1 6 tcp 1040 ------- 0 1.0 4.0 44 73
+ 0.286056 6 7 tcp 1040 ------- 0 1.0 4.0 44 73
r 0.286648 6 7 tcp 1040 ------- 0 1.0 4.0 26 42
+ 0.286648 7 4 tcp 1040 ------- 0 1.0 4.0 26 42
- 0.286648 7 4 tcp 1040 ------- 0 1.0 4.0 26 42
r 0.28848 7 4 tcp 1040 ------- 0 1.0 4.0 26 42
+ 0.28848 4 7 ack 40 ------- 0 4.0 1.0 26 74
- 0.28848 4 7 ack 40 ------- 0 4.0 1.0 26 74
r 0.289512 4 7 ack 40 ------- 0 4.0 1.0 26 74
+ 0.289512 7 6 ack 40 ------- 0 4.0 1.0 26 74
- 0.289512 7 6 ack 40 ------- 0 4.0 1.0 26 74
r 0.291512 7 6 ack 40 ------- 0 4.0 1.0 25 72
+ 0.291512 6 1 ack 40 ------- 0 4.0 1.0 25 72
- 0.291512 6 1 ack 40 ------- 0 4.0 1.0 25 72
r 0.292544 6 1 ack 40 ------- 0 4.0 1.0 25 72
+ 0.292544 1 6 tcp 1040 ------- 0 1.0 4.0 45 75
- 0.292544 1 6 tcp 1040 ------- 0 1.0 4.0 45 75
- 0.293288 6 7 tcp 1040 ------- 0 1.0 4.0 29 47
r 0.294376 1 6 tcp 1040 ------- 0 1.0 4.0 45 75
+ 0.294376 6 7 tcp 1040 ------- 0 1.0 4.0 45 75
r 0.294968 6 7 tcp 1040 ------- 0 1.0 4.0 27 44
+ 0.294968 7 4 tcp 1040 ------- 0 1.0 4.0 27 44
- 0.294968 7 4 tcp 1040 ------- 0 1.0 4.0 27 44
r 0.2968 7 4 tcp 1040 ------- 0 1.0 4.0 27 44
+ 0.2968 4 7 ack 40 ------- 0 4.0 1.0 27 76
- 0.2968 4 7 ack 40 ------- 0 4.0 1.0 27 76
r 0.297832 4 7 ack 40 ------- 0 4.0 1.0 27 76
+ 0.297832 7 6 ack 40 ------- 0 4.0 1.0 27 76
- 0.297832 7 6 ack 40 ------- 0 4.0 1.0 27 76
r 0.299832 7 6 ack 40 ------- 0 4.0 1.0 26 74
+ 0.299832 6 1 ack 40 ------- 0 4.0 1.0 26 74
- 0.299832 6 1 ack 40 ------- 0 4.0 1.0 26 74
r 0.300864 6 1 ack 40 ------- 0 4.0 1.0 26 74
+ 0.300864 1 6 tcp 1040 ------- 0 1.0 4.0 46 77
- 0.300864 1 6 tcp 1040 ------- 0 1.0 4.0 46 77
- 0.301608 6 7 tcp 1040 ------- 0 1.0 4.0 30 48
r 0.302696 1 6 tcp 1040 ------- 0 1.0 4.0 46 77
+ 0.302696 6 7 tcp 1040 ------- 0 1.0 4.0 46 77
r 0.303288 6 7 tcp 1040 ------- 0 1.0 4.0 28 45
+ 0.303288 7 4 tcp 1040 ------- 0 1.0 4.0 28 45
- 0.303288 7 4 tcp 1040 ------- 0 1.0 4.0 28 45
r 0.30512 7 4 tcp 1040 ------- 0 1.0 4.0 28 45
+ 0.30512 4 7 ack 40 ------- 0 4.0 1.0 28 78
- 0.30512 4 7 ack 40 ------- 0 4.0 1.0 28 78
r 0.306152 4 7 ack 40 ------- 0 4.0 1.0 28 78
+ 0.306152 7 6 ack 40 ------- 0 4.0 1.0 28 78
- 0.306152 7 6 ack 40 ------- 0 4.0 1.0 28 78
r 0.308152 7 6 ack 40 ------- 0 4.0 1.0 27 76
+ 0.308152 6 1 ack 40 ------- 0 4.0 1.0 27 76
- 0.308152 6 1 ack 40 ------- 0 4.0 1.0 27 76
r 0.309184 6 1 ack 40 ------- 0 4.0 1.0 27 76
+ 0.309184 1 6 tcp 1040 ------- 0 1.0 4.0 47 79
- 0.309184 1 6 tcp 1040 ------- 0 1.0 4.0 47 79
- 0.309928 6 7 tcp 1040 ------- 0 1.0 4.0 31 50
r 0.311016 1 6 tcp 1040 ------- 0 1.0 4.0 47 79
+ 0.311016 6 7 tcp 1040 ------- 0 1.0 4.0 47 79
r 0.311608 6 7 tcp 1040 ------- 0 1.0 4.0 29 47
+ 0.311608 7 4 tcp 1040 ------- 0 1.0 4.0 29 47
- 0.311608 7 4 tcp 1040 ------- 0 1.0 4.0 29 47
r 0.31344 7 4 tcp 1040 ------- 0 1.0 4.0 29 47
+ 0.31344 4 7 ack 40 ------- 0 4.0 1.0 29 80
- 0.31344 4 7 ack 40 ------- 0 4.0 1.0 29 80
r 0.314472 4 7 ack 40 ------- 0 4.0 1.0 29 80
+ 0.314472 7 6 ack 40 ------- 0 4.0 1.0 29 80
- 0.314472 7 6 ack 40 ------- 0 4.0 1.0 29 80
r 0.316472 7 6 ack 40 ------- 0 4.0 1.0 28 78
+ 0.316472 6 1 ack 40 ------- 0 4.0 1.0 28 78
- 0.316472 6 1 ack 40 ------- 0 4.0 1.0 28 78
r 0.317504 6 1 ack 40 ------- 0 4.0 1.0 28 78
+ 0.317504 1 6 tcp 1040 ------- 0 1.0 4.0 48 81
- 0.317504 1 6 tcp 1040 ------- 0 1.0 4.0 48 81
- 0.318248 6 7 tcp 1040 ------- 0 1.0 4.0 32 51
r 0.319336 1 6 tcp 1040 ------- 0 1.0 4.0 48 81
+ 0.319336 6 7 tcp 1040 ------- 0 1.0 4.0 48 81
r 0.319928 6 7 tcp 1040 ------- 0 1.0 4.0 30 48
+ 0.319928 7 4 tcp 1040 ------- 0 1.0 4.0 30 48
- 0.319928 7 4 tcp 1040 ------- 0 1.0 4.0 30 48
+ 0.32 2 6 exp 1000 ------- 0 2.0 5.0 3 82
- 0.32 2 6 exp 1000 ------- 0 2.0 5.0 3 82
r 0.32176 7 4 tcp 1040 ------- 0 1.0 4.0 30 48
+ 0.32176 4 7 ack 40 ------- 0 4.0 1.0 30 83
- 0.32176 4 7 ack 40 ------- 0 4.0 1.0 30 83
r 0.3218 2 6 exp 1000 ------- 0 2.0 5.0 3 82