+ 0 1 6 tcp 40 ------- 0 1.0 4.0 0 0
- 0 1 6 tcp 40 ------- 0 1.0 4.0 0 0
r 0.001032 1 6 tcp 40 ------- 0 1.0 4.0 0 0
+ 0.001032 6 7 tcp 40 ------- 0 1.0 4.0 0 0
- 0.001032 6 7 tcp 40 ------- 0 1.0 4.0 0 0
r 0.011352 6 7 tcp 40 ------- 0 1.0 4.0 0 0
+ 0.011352 7 4 tcp 40 ------- 0 1.0 4.0 0 0
- 0.011352 7 4 tcp 40 ------- 0 1.0 4.0 0 0
r 0.012384 7 4 tcp 40 ------- 0 1.0 4.0 0 0
+ 0.012384 4 7 ack 40 ------- 0 4.0 1.0 0 1
- 0.012384 4 7 ack 40 ------- 0 4.0 1.0 0 1
r 0.013416 4 7 ack 40 ------- 0 4.0 1.0 0 1
+ 0.013416 7 6 ack 40 ------- 0 4.0 1.0 0 1
- 0.013416 7 6 ack 40 ------- 0 4.0 1.0 0 1
r 0.023736 7 6 ack 40 ------- 0 4.0 1.0 0 1
+ 0.023736 6 1 ack 40 ------- 0 4.0 1.0 0 1
- 0.023736 6 1 ack 40 ------- 0 4.0 1.0 0 1
r 0.024768 6 1 ack 40 ------- 0 4.0 1.0 0 1
+ 0.024768 1 6 tcp 1040 ------- 0 1.0 4.0 1 2
- 0.024768 1 6 tcp 1040 ------- 0 1.0 4.0 1 2
+ 0.024768 1 6 tcp 1040 ------- 0 1.0 4.0 2 3
- 0.0256 1 6 tcp 1040 ------- 0 1.0 4.0 2 3
r 0.0266 1 6 tcp 1040 ------- 0 1.0 4.0 1 2
+ 0.0266 6 7 tcp 1040 ------- 0 1.0 4.0 1 2
- 0.0266 6 7 tcp 1040 ------- 0 1.0 4.0 1 2
r 0.027432 1 6 tcp 1040 ------- 0 1.0 4.0 2 3
+ 0.027432 6 7 tcp 1040 ------- 0 1.0 4.0 2 3
- 0.03492 6 7 tcp 1040 ------- 0 1.0 4.0 2 3
+ 0.04 2 6 exp 1000 ------- 0 2.0 5.0 0 4
- 0.04 2 6 exp 1000 ------- 0 2.0 5.0 0 4
r 0.0418 2 6 exp 1000 ------- 0 2.0 5.0 0 4
+ 0.0418 6 7 exp 1000 ------- 0 2.0 5.0 0 4
- 0.04324 6 7 exp 1000 ------- 0 2.0 5.0 0 4
r 0.04492 6 7 tcp 1040 ------- 0 1.0 4.0 1 2
+ 0.04492 7 4 tcp 1040 ------- 0 1.0 4.0 1 2
- 0.04492 7 4 tcp 1040 ------- 0 1.0 4.0 1 2
r 0.046752 7 4 tcp 1040 ------- 0 1.0 4.0 1 2
+ 0.046752 4 7 ack 40 ------- 0 4.0 1.0 1 5
- 0.046752 4 7 ack 40 ------- 0 4.0 1.0 1 5
r 0.047784 4 7 ack 40 ------- 0 4.0 1.0 1 5
+ 0.047784 7 6 ack 40 ------- 0 4.0 1.0 1 5
- 0.047784 7 6 ack 40 ------- 0 4.0 1.0 1 5
r 0.05324 6 7 tcp 1040 ------- 0 1.0 4.0 2 3
+ 0.05324 7 4 tcp 1040 ------- 0 1.0 4.0 2 3
- 0.05324 7 4 tcp 1040 ------- 0 1.0 4.0 2 3
r 0.055072 7 4 tcp 1040 ------- 0 1.0 4.0 2 3
+ 0.055072 4 7 ack 40 ------- 0 4.0 1.0 2 6
- 0.055072 4 7 ack 40 ------- 0 4.0 1.0 2 6
r 0.056104 4 7 ack 40 ------- 0 4.0 1.0 2 6
+ 0.056104 7 6 ack 40 ------- 0 4.0 1.0 2 6
- 0.056104 7 6 ack 40 ------- 0 4.0 1.0 2 6
r 0.058104 7 6 ack 40 ------- 0 4.0 1.0 1 5
+ 0.058104 6 1 ack 40 ------- 0 4.0 1.0 1 5
- 0.058104 6 1 ack 40 ------- 0 4.0 1.0 1 5
r 0.059136 6 1 ack 40 ------- 0 4.0 1.0 1 5
+ 0.059136 1 6 tcp 1040 ------- 0 1.0 4.0 3 7
- 0.059136 1 6 tcp 1040 ------- 0 1.0 4.0 3 7
+ 0.059136 1 6 tcp 1040 ------- 0 1.0 4.0 4 8
- 0.059968 1 6 tcp 1040 ------- 0 1.0 4.0 4 8
r 0.060968 1 6 tcp 1040 ------- 0 1.0 4.0 3 7
+ 0.060968 6 7 tcp 1040 ------- 0 1.0 4.0 3 7
- 0.060968 6 7 tcp 1040 ------- 0 1.0 4.0 3 7
r 0.06124 6 7 exp 1000 ------- 0 2.0 5.0 0 4
+ 0.06124 7 5 exp 1000 ------- 0 2.0 5.0 0 4
- 0.06124 7 5 exp 1000 ------- 0 2.0 5.0 0 4
r 0.0618 1 6 tcp 1040 ------- 0 1.0 4.0 4 8
+ 0.0618 6 7 tcp 1040 ------- 0 1.0 4.0 4 8
r 0.06304 7 5 exp 1000 ------- 0 2.0 5.0 0 4
r 0.066424 7 6 ack 40 ------- 0 4.0 1.0 2 6
+ 0.066424 6 1 ack 40 ------- 0 4.0 1.0 2 6
- 0.066424 6 1 ack 40 ------- 0 4.0 1.0 2 6
r 0.067456 6 1 ack 40 ------- 0 4.0 1.0 2 6
+ 0.067456 1 6 tcp 1040 ------- 0 1.0 4.0 5 9
- 0.067456 1 6 tcp 1040 ------- 0 1.0 4.0 5 9
+ 0.067456 1 6 tcp 1040 ------- 0 1.0 4.0 6 10
- 0.068288 1 6 tcp 1040 ------- 0 1.0 4.0 6 10
- 0.069288 6 7 tcp 1040 ------- 0 1.0 4.0 4 8
r 0.069288 1 6 tcp 1040 ------- 0 1.0 4.0 5 9
+ 0.069288 6 7 tcp 1040 ------- 0 1.0 4.0 5 9
r 0.07012 1 6 tcp 1040 ------- 0 1.0 4.0 6 10
+ 0.07012 6 7 tcp 1040 ------- 0 1.0 4.0 6 10
- 0.077608 6 7 tcp 1040 ------- 0 1.0 4.0 5 9
r 0.079288 6 7 tcp 1040 ------- 0 1.0 4.0 3 7
+ 0.079288 7 4 tcp 1040 ------- 0 1.0 4.0 3 7
- 0.079288 7 4 tcp 1040 ------- 0 1.0 4.0 3 7
+ 0.08 2 6 exp 1000 ------- 0 2.0 5.0 1 11
- 0.08 2 6 exp 1000 ------- 0 2.0 5.0 1 11
r 0.08112 7 4 tcp 1040 ------- 0 1.0 4.0 3 7
+ 0.08112 4 7 ack 40 ------- 0 4.0 1.0 3 12
- 0.08112 4 7 ack 40 ------- 0 4.0 1.0 3 12
r 0.0818 2 6 exp 1000 ------- 0 2.0 5.0 1 11
+ 0.0818 6 7 exp 1000 ------- 0 2.0 5.0 1 11
r 0.082152 4 7 ack 40 ------- 0 4.0 1.0 3 12
+ 0.082152 7 6 ack 40 ------- 0 4.0 1.0 3 12
- 0.082152 7 6 ack 40 ------- 0 4.0 1.0 3 12
- 0.085928 6 7 tcp 1040 ------- 0 1.0 4.0 6 10
r 0.087608 6 7 tcp 1040 ------- 0 1.0 4.0 4 8
+ 0.087608 7 4 tcp 1040 ------- 0 1.0 4.0 4 8
- 0.087608 7 4 tcp 1040 ------- 0 1.0 4.0 4 8
r 0.08944 7 4 tcp 1040 ------- 0 1.0 4.0 4 8
+ 0.08944 4 7 ack 40 ------- 0 4.0 1.0 4 13
- 0.08944 4 7 ack 40 ------- 0 4.0 1.0 4 13
r 0.090472 4 7 ack 40 ------- 0 4.0 1.0 4 13
+ 0.090472 7 6 ack 40 ------- 0 4.0 1.0 4 13
- 0.090472 7 6 ack 40 ------- 0 4.0 1.0 4 13
r 0.092472 7 6 ack 40 ------- 0 4.0 1.0 3 12
+ 0.092472 6 1 ack 40 ------- 0 4.0 1.0 3 12
- 0.092472 6 1 ack 40 ------- 0 4.0 1.0 3 12
r 0.093504 6 1 ack 40 ------- 0 4.0 1.0 3 12
+ 0.093504 1 6 tcp 1040 ------- 0 1.0 4.0 7 14
- 0.093504 1 6 tcp 1040 ------- 0 1.0 4.0 7 14
+ 0.093504 1 6 tcp 1040 ------- 0 1.0 4.0 8 15
- 0.094248 6 7 exp 1000 ------- 0 2.0 5.0 1 11
- 0.094336 1 6 tcp 1040 ------- 0 1.0 4.0 8 15
r 0.095336 1 6 tcp 1040 ------- 0 1.0 4.0 7 14
+ 0.095336 6 7 tcp 1040 ------- 0 1.0 4.0 7 14
r 0.095928 6 7 tcp 1040 ------- 0 1.0 4.0 5 9
+ 0.095928 7 4 tcp 1040 ------- 0 1.0 4.0 5 9
- 0.095928 7 4 tcp 1040 ------- 0 1.0 4.0 5 9
r 0.096168 1 6 tcp 1040 ------- 0 1.0 4.0 8 15
+ 0.096168 6 7 tcp 1040 ------- 0 1.0 4.0 8 15
r 0.09776 7 4 tcp 1040 ------- 0 1.0 4.0 5 9
+ 0.09776 4 7 ack 40 ------- 0 4.0 1.0 5 16
- 0.09776 4 7 ack 40 ------- 0 4.0 1.0 5 16
r 0.098792 4 7 ack 40 ------- 0 4.0 1.0 5 16
+ 0.098792 7 6 ack 40 ------- 0 4.0 1.0 5 16
- 0.098792 7 6 ack 40 ------- 0 4.0 1.0 5 16
r 0.100792 7 6 ack 40 ------- 0 4.0 1.0 4 13
+ 0.100792 6 1 ack 40 ------- 0 4.0 1.0 4 13
- 0.100792 6 1 ack 40 ------- 0 4.0 1.0 4 13
r 0.101824 6 1 ack 40 ------- 0 4.0 1.0 4 13
+ 0.101824 1 6 tcp 1040 ------- 0 1.0 4.0 9 17
- 0.101824 1 6 tcp 1040 ------- 0 1.0 4.0 9 17
+ 0.101824 1 6 tcp 1040 ------- 0 1.0 4.0 10 18
- 0.102248 6 7 tcp 1040 ------- 0 1.0 4.0 7 14
- 0.102656 1 6 tcp 1040 ------- 0 1.0 4.0 10 18
r 0.103656 1 6 tcp 1040 ------- 0 1.0 4.0 9 17
+ 0.103656 6 7 tcp 1040 ------- 0 1.0 4.0 9 17
r 0.104248 6 7 tcp 1040 ------- 0 1.0 4.0 6 10
+ 0.104248 7 4 tcp 1040 ------- 0 1.0 4.0 6 10
- 0.104248 7 4 tcp 1040 ------- 0 1.0 4.0 6 10
r 0.104488 1 6 tcp 1040 ------- 0 1.0 4.0 10 18
+ 0.104488 6 7 tcp 1040 ------- 0 1.0 4.0 10 18
r 0.10608 7 4 tcp 1040 ------- 0 1.0 4.0 6 10
+ 0.10608 4 7 ack 40 ------- 0 4.0 1.0 6 19
- 0.10608 4 7 ack 40 ------- 0 4.0 1.0 6 19
r 0.107112 4 7 ack 40 ------- 0 4.0 1.0 6 19
+ 0.107112 7 6 ack 40 ------- 0 4.0 1.0 6 19
- 0.107112 7 6 ack 40 ------- 0 4.0 1.0 6 19
r 0.109112 7 6 ack 40 ------- 0 4.0 1.0 5 16
+ 0.109112 6 1 ack 40 ------- 0 4.0 1.0 5 16
- 0.109112 6 1 ack 40 ------- 0 4.0 1.0 5 16
r 0.110144 6 1 ack 40 ------- 0 4.0 1.0 5 16
+ 0.110144 1 6 tcp 1040 ------- 0 1.0 4.0 11 20
- 0.110144 1 6 tcp 1040 ------- 0 1.0 4.0 11 20
+ 0.110144 1 6 tcp 1040 ------- 0 1.0 4.0 12 21
- 0.110568 6 7 tcp 1040 ------- 0 1.0 4.0 8 15
- 0.110976 1 6 tcp 1040 ------- 0 1.0 4.0 12 21
r 0.111976 1 6 tcp 1040 ------- 0 1.0 4.0 11 20
+ 0.111976 6 7 tcp 1040 ------- 0 1.0 4.0 11 20
r 0.112248 6 7 exp 1000 ------- 0 2.0 5.0 1 11
+ 0.112248 7 5 exp 1000 ------- 0 2.0 5.0 1 11
- 0.112248 7 5 exp 1000 ------- 0 2.0 5.0 1 11
r 0.112808 1 6 tcp 1040 ------- 0 1.0 4.0 12 21
+ 0.112808 6 7 tcp 1040 ------- 0 1.0 4.0 12 21
r 0.114048 7 5 exp 1000 ------- 0 2.0 5.0 1 11
r 0.117432 7 6 ack 40 ------- 0 4.0 1.0 6 19
+ 0.117432 6 1 ack 40 ------- 0 4.0 1.0 6 19
- 0.117432 6 1 ack 40 ------- 0 4.0 1.0 6 19
r 0.118464 6 1 ack 40 ------- 0 4.0 1.0 6 19
+ 0.118464 1 6 tcp 1040 ------- 0 1.0 4.0 13 22
- 0.118464 1 6 tcp 1040 ------- 0 1.0 4.0 13 22
+ 0.118464 1 6 tcp 1040 ------- 0 1.0 4.0 14 23
- 0.118888 6 7 tcp 1040 ------- 0 1.0 4.0 9 17
- 0.119296 1 6 tcp 1040 ------- 0 1.0 4.0 14 23
+ 0.12 2 6 exp 1000 ------- 0 2.0 5.0 2 24
- 0.12 2 6 exp 1000 ------- 0 2.0 5.0 2 24
r 0.120296 1 6 tcp 1040 ------- 0 1.0 4.0 13 22
+ 0.120296 6 7 tcp 1040 ------- 0 1.0 4.0 13 22
r 0.120568 6 7 tcp 1040 ------- 0 1.0 4.0 7 14
+ 0.120568 7 4 tcp 1040 ------- 0 1.0 4.0 7 14
- 0.120568 7 4 tcp 1040 ------- 0 1.0 4.0 7 14
r 0.121128 1 6 tcp 1040 ------- 0 1.0 4.0 14 23
+ 0.121128 6 7 tcp 1040 ------- 0 1.0 4.0 14 23
r 0.1218 2 6 exp 1000 ------- 0 2.0 5.0 2 24
+ 0.1218 6 7 exp 1000 ------- 0 2.0 5.0 2 24
r 0.1224 7 4 tcp 1040 ------- 0 1.0 4.0 7 14
+ 0.1224 4 7 ack 40 ------- 0 4.0 1.0 7 25
- 0.1224 4 7 ack 40 ------- 0 4.0 1.0 7 25
r 0.123432 4 7 ack 40 ------- 0 4.0 1.0 7 25
+ 0.123432 7 6 ack 40 ------- 0 4.0 1.0 7 25
- 0.123432 7 6 ack 40 ------- 0 4.0 1.0 7 25
- 0.127208 6 7 tcp 1040 ------- 0 1.0 4.0 10 18
r 0.128888 6 7 tcp 1040 ------- 0 1.0 4.0 8 15
+ 0.128888 7 4 tcp 1040 ------- 0 1.0 4.0 8 15
- 0.128888 7 4 tcp 1040 ------- 0 1.0 4.0 8 15
r 0.13072 7 4 tcp 1040 ------- 0 1.0 4.0 8 15
+ 0.13072 4 7 ack 40 ------- 0 4.0 1.0 8 26
- 0.13072 4 7 ack 40 ------- 0 4.0 1.0 8 26
r 0.131752 4 7 ack 40 ------- 0 4.0 1.0 8 26
+ 0.131752 7 6 ack 40 ------- 0 4.0 1.0 8 26
- 0.131752 7 6 ack 40 ------- 0 4.0 1.0 8 26
r 0.133752 7 6 ack 40 ------- 0 4.0 1.0 7 25
+ 0.133752 6 1 ack 40 ------- 0 4.0 1.0 7 25
- 0.133752 6 1 ack 40 ------- 0 4.0 1.0 7 25
r 0.134784 6 1 ack 40 ------- 0 4.0 1.0 7 25
+ 0.134784 1 6 tcp 1040 ------- 0 1.0 4.0 15 27
- 0.134784 1 6 tcp 1040 ------- 0 1.0 4.0 15 27
+ 0.134784 1 6 tcp 1040 ------- 0 1.0 4.0 16 28
- 0.135528 6 7 tcp 1040 ------- 0 1.0 4.0 11 20
- 0.135616 1 6 tcp 1040 ------- 0 1.0 4.0 16 28
r 0.136616 1 6 tcp 1040 ------- 0 1.0 4.0 15 27
+ 0.136616 6 7 tcp 1040 ------- 0 1.0 4.0 15 27
r 0.137208 6 7 tcp 1040 ------- 0 1.0 4.0 9 17
+ 0.137208 7 4 tcp 1040 ------- 0 1.0 4.0 9 17
- 0.137208 7 4 tcp 1040 ------- 0 1.0 4.0 9 17
r 0.137448 1 6 tcp 1040 ------- 0 1.0 4.0 16 28
+ 0.137448 6 7 tcp 1040 ------- 0 1.0 4.0 16 28
r 0.13904 7 4 tcp 1040 ------- 0 1.0 4.0 9 17
+ 0.13904 4 7 ack 40 ------- 0 4.0 1.0 9 29
- 0.13904 4 7 ack 40 ------- 0 4.0 1.0 9 29
r 0.140072 4 7 ack 40 ------- 0 4.0 1.0 9 29
+ 0.140072 7 6 ack 40 ------- 0 4.0 1.0 9 29
- 0.140072 7 6 ack 40 ------- 0 4.0 1.0 9 29
r 0.142072 7 6 ack 40 ------- 0 4.0 1.0 8 26
+ 0.142072 6 1 ack 40 ------- 0 4.0 1.0 8 26
- 0.142072 6 1 ack 40 ------- 0 4.0 1.0 8 26
r 0.143104 6 1 ack 40 ------- 0 4.0 1.0 8 26
+ 0.143104 1 6 tcp 1040 ------- 0 1.0 4.0 17 30
- 0.143104 1 6 tcp 1040 ------- 0 1.0 4.0 17 30
+ 0.143104 1 6 tcp 1040 ------- 0 1.0 4.0 18 31
- 0.143848 6 7 tcp 1040 ------- 0 1.0 4.0 12 21
- 0.143936 1 6 tcp 1040 ------- 0 1.0 4.0 18 31
r 0.144936 1 6 tcp 1040 ------- 0 1.0 4.0 17 30
+ 0.144936 6 7 tcp 1040 ------- 0 1.0 4.0 17 30
r 0.145528 6 7 tcp 1040 ------- 0 1.0 4.0 10 18
+ 0.145528 7 4 tcp 1040 ------- 0 1.0 4.0 10 18
- 0.145528 7 4 tcp 1040 ------- 0 1.0 4.0 10 18
r 0.145768 1 6 tcp 1040 ------- 0 1.0 4.0 18 31
+ 0.145768 6 7 tcp 1040 ------- 0 1.0 4.0 18 31
r 0.14736 7 4 tcp 1040 ------- 0 1.0 4.0 10 18
+ 0.14736 4 7 ack 40 ------- 0 4.0 1.0 10 32
- 0.14736 4 7 ack 40 ------- 0 4.0 1.0 10 32
r 0.148392 4 7 ack 40 ------- 0 4.0 1.0 10 32
+ 0.148392 7 6 ack 40 ------- 0 4.0 1.0 10 32
- 0.148392 7 6 ack 40 ------- 0 4.0 1.0 10 32
r 0.150392 7 6 ack 40 ------- 0 4.0 1.0 9 29
+ 0.150392 6 1 ack 40 ------- 0 4.0 1.0 9 29
- 0.150392 6 1 ack 40 ------- 0 4.0 1.0 9 29
r 0.151424 6 1 ack 40 ------- 0 4.0 1.0 9 29
+ 0.151424 1 6 tcp 1040 ------- 0 1.0 4.0 19 33
- 0.151424 1 6 tcp 1040 ------- 0 1.0 4.0 19 33
+ 0.151424 1 6 tcp 1040 ------- 0 1.0 4.0 20 34
- 0.152168 6 7 tcp 1040 ------- 0 1.0 4.0 13 22
- 0.152256 1 6 tcp 1040 ------- 0 1.0 4.0 20 34
r 0.153256 1 6 tcp 1040 ------- 0 1.0 4.0 19 33
+ 0.153256 6 7 tcp 1040 ------- 0 1.0 4.0 19 33
r 0.153848 6 7 tcp 1040 ------- 0 1.0 4.0 11 20
+ 0.153848 7 4 tcp 1040 ------- 0 1.0 4.0 11 20
- 0.153848 7 4 tcp 1040 ------- 0 1.0 4.0 11 20
r 0.154088 1 6 tcp 1040 ------- 0 1.0 4.0 20 34
+ 0.154088 6 7 tcp 1040 ------- 0 1.0 4.0 20 34
r 0.15568 7 4 tcp 1040 ------- 0 1.0 4.0 11 20
+ 0.15568 4 7 ack 40 ------- 0 4.0 1.0 11 35
- 0.15568 4 7 ack 40 ------- 0 4.0 1.0 11 35
r 0.156712 4 7 ack 40 ------- 0 4.0 1.0 11 35
+ 0.156712 7 6 ack 40 ------- 0 4.0 1.0 11 35
- 0.156712 7 6 ack 40 ------- 0 4.0 1.0 11 35
r 0.158712 7 6 ack 40 ------- 0 4.0 1.0 10 32
+ 0.158712 6 1 ack 40 ------- 0 4.0 1.0 10 32
- 0.158712 6 1 ack 40 ------- 0 4.0 1.0 10 32
r 0.159744 6 1 ack 40 ------- 0 4.0 1.0 10 32
+ 0.159744 1 6 tcp 1040 ------- 0 1.0 4.0 21 36
- 0.159744 1 6 tcp 1040 ------- 0 1.0 4.0 21 36
+ 0.159744 1 6 tcp 1040 ------- 0 1.0 4.0 22 37
+ 0.16 2 6 exp 1000 ------- 0 2.0 5.0 3 38
- 0.16 2 6 exp 1000 ------- 0 2.0 5.0 3 38
- 0.160488 6 7 tcp 1040 ------- 0 1.0 4.0 14 23
- 0.160576 1 6 tcp 1040 ------- 0 1.0 4.0 22 37
r 0.161576 1 6 tcp 1040 ------- 0 1.0 4.0 21 36
+ 0.161576 6 7 tcp 1040 ------- 0 1.0 4.0 21 36
r 0.1618 2 6 exp 1000 ------- 0 2.0 5.0 3 38
+ 0.1618 6 7 exp 1000 ------- 0 2.0 5.0 3 38
r 0.162168 6 7 tcp 1040 ------- 0 1.0 4.0 12 21
+ 0.162168 7 4 tcp 1040 ------- 0 1.0 4.0 12 21
- 0.162168 7 4 tcp 1040 ------- 0 1.0 4.0 12 21
r 0.162408 1 6 tcp 1040 ------- 0 1.0 4.0 22 37
+ 0.162408 6 7 tcp 1040 ------- 0 1.0 4.0 22 37
r 0.164 7 4 tcp 1040 ------- 0 1.0 4.0 12 21
+ 0.164 4 7 ack 40 ------- 0 4.0 1.0 12 39
- 0.164 4 7 ack 40 ------- 0 4.0 1.0 12 39
r 0.165032 4 7 ack 40 ------- 0 4.0 1.0 12 39
+ 0.165032 7 6 ack 40 ------- 0 4.0 1.0 12 39
- 0.165032 7 6 ack 40 ------- 0 4.0 1.0 12 39
r 0.167032 7 6 ack 40 ------- 0 4.0 1.0 11 35
+ 0.167032 6 1 ack 40 ------- 0 4.0 1.0 11 35
- 0.167032 6 1 ack 40 ------- 0 4.0 1.0 11 35
r 0.168064 6 1 ack 40 ------- 0 4.0 1.0 11 35
+ 0.168064 1 6 tcp 1040 ------- 0 1.0 4.0 23 40
- 0.168064 1 6 tcp 1040 ------- 0 1.0 4.0 23 40
+ 0.168064 1 6 tcp 1040 ------- 0 1.0 4.0 24 41
- 0.168808 6 7 exp 1000 ------- 0 2.0 5.0 2 24
- 0.168896 1 6 tcp 1040 ------- 0 1.0 4.0 24 41
r 0.169896 1 6 tcp 1040 ------- 0 1.0 4.0 23 40
+ 0.169896 6 7 tcp 1040 ------- 0 1.0 4.0 23 40
r 0.170488 6 7 tcp 1040 ------- 0 1.0 4.0 13 22
+ 0.170488 7 4 tcp 1040 ------- 0 1.0 4.0 13 22
- 0.170488 7 4 tcp 1040 ------- 0 1.0 4.0 13 22
r 0.170728 1 6 tcp 1040 ------- 0 1.0 4.0 24 41
+ 0.170728 6 7 tcp 1040 ------- 0 1.0 4.0 24 41
r 0.17232 7 4 tcp 1040 ------- 0 1.0 4.0 13 22
+ 0.17232 4 7 ack 40 ------- 0 4.0 1.0 13 42
- 0.17232 4 7 ack 40 ------- 0 4.0 1.0 13 42
r 0.173352 4 7 ack 40 ------- 0 4.0 1.0 13 42
+ 0.173352 7 6 ack 40 ------- 0 4.0 1.0 13 42
- 0.173352 7 6 ack 40 ------- 0 4.0 1.0 13 42
r 0.175352 7 6 ack 40 ------- 0 4.0 1.0 12 39
+ 0.175352 6 1 ack 40 ------- 0 4.0 1.0 12 39
- 0.175352 6 1 ack 40 ------- 0 4.0 1.0 12 39
r 0.176384 6 1 ack 40 ------- 0 4.0 1.0 12 39
+ 0.176384 1 6 tcp 1040 ------- 0 1.0 4.0 25 43
- 0.176384 1 6 tcp 1040 ------- 0 1.0 4.0 25 43
+ 0.176384 1 6 tcp 1040 ------- 0 1.0 4.0 26 44
- 0.176808 6 7 tcp 1040 ------- 0 1.0 4.0 15 27
- 0.177216 1 6 tcp 1040 ------- 0 1.0 4.0 26 44
r 0.178216 1 6 tcp 1040 ------- 0 1.0 4.0 25 43
+ 0.178216 6 7 tcp 1040 ------- 0 1.0 4.0 25 43
r 0.178808 6 7 tcp 1040 ------- 0 1.0 4.0 14 23
+ 0.178808 7 4 tcp 1040 ------- 0 1.0 4.0 14 23
- 0.178808 7 4 tcp 1040 ------- 0 1.0 4.0 14 23
r 0.179048 1 6 tcp 1040 ------- 0 1.0 4.0 26 44
+ 0.179048 6 7 tcp 1040 ------- 0 1.0 4.0 26 44
r 0.18064 7 4 tcp 1040 ------- 0 1.0 4.0 14 23
+ 0.18064 4 7 ack 40 ------- 0 4.0 1.0 14 45
- 0.18064 4 7 ack 40 ------- 0 4.0 1.0 14 45
r 0.181672 4 7 ack 40 ------- 0 4.0 1.0 14 45
+ 0.181672 7 6 ack 40 ------- 0 4.0 1.0 14 45
- 0.181672 7 6 ack 40 ------- 0 4.0 1.0 14 45
r 0.183672 7 6 ack 40 ------- 0 4.0 1.0 13 42
+ 0.183672 6 1 ack 40 ------- 0 4.0 1.0 13 42
- 0.183672 6 1 ack 40 ------- 0 4.0 1.0 13 42
r 0.184704 6 1 ack 40 ------- 0 4.0 1.0 13 42
+ 0.184704 1 6 tcp 1040 ------- 0 1.0 4.0 27 46
- 0.184704 1 6 tcp 1040 ------- 0 1.0 4.0 27 46
+ 0.184704 1 6 tcp 1040 ------- 0 1.0 4.0 28 47
- 0.185128 6 7 tcp 1040 ------- 0 1.0 4.0 16 28
- 0.185536 1 6 tcp 1040 ------- 0 1.0 4.0 28 47
r 0.186536 1 6 tcp 1040 ------- 0 1.0 4.0 27 46
+ 0.186536 6 7 tcp 1040 ------- 0 1.0 4.0 27 46
r 0.186808 6 7 exp 1000 ------- 0 2.0 5.0 2 24
+ 0.186808 7 5 exp 1000 ------- 0 2.0 5.0 2 24
- 0.186808 7 5 exp 1000 ------- 0 2.0 5.0 2 24
r 0.187368 1 6 tcp 1040 ------- 0 1.0 4.0 28 47
+ 0.187368 6 7 tcp 1040 ------- 0 1.0 4.0 28 47
r 0.188608 7 5 exp 1000 ------- 0 2.0 5.0 2 24
r 0.191992 7 6 ack 40 ------- 0 4.0 1.0 14 45
+ 0.191992 6 1 ack 40 ------- 0 4.0 1.0 14 45
- 0.191992 6 1 ack 40 ------- 0 4.0 1.0 14 45
r 0.193024 6 1 ack 40 ------- 0 4.0 1.0 14 45
+ 0.193024 1 6 tcp 1040 ------- 0 1.0 4.0 29 48
- 0.193024 1 6 tcp 1040 ------- 0 1.0 4.0 29 48
+ 0.193024 1 6 tcp 1040 ------- 0 1.0 4.0 30 49
- 0.193448 6 7 tcp 1040 ------- 0 1.0 4.0 17 30
- 0.193856 1 6 tcp 1040 ------- 0 1.0 4.0 30 49
r 0.194856 1 6 tcp 1040 ------- 0 1.0 4.0 29 48
+ 0.194856 6 7 tcp 1040 ------- 0 1.0 4.0 29 48
r 0.195128 6 7 tcp 1040 ------- 0 1.0 4.0 15 27
+ 0.195128 7 4 tcp 1040 ------- 0 1.0 4.0 15 27
- 0.195128 7 4 tcp 1040 ------- 0 1.0 4.0 15 27
r 0.195688 1 6 tcp 1040 ------- 0 1.0 4.0 30 49
+ 0.195688 6 7 tcp 1040 ------- 0 1.0 4.0 30 49
r 0.19696 7 4 tcp 1040 ------- 0 1.0 4.0 15 27
+ 0.19696 4 7 ack 40 ------- 0 4.0 1.0 15 50
- 0.19696 4 7 ack 40 ------- 0 4.0 1.0 15 50
r 0.197992 4 7 ack 40 ------- 0 4.0 1.0 15 50
+ 0.197992 7 6 ack 40 ------- 0 4.0 1.0 15 50
- 0.197992 7 6 ack 40 ------- 0 4.0 1.0 15 50
+ 0.2 2 6 exp 1000 ------- 0 2.0 5.0 4 51
- 0.2 2 6 exp 1000 ------- 0 2.0 5.0 4 51
- 0.201768 6 7 tcp 1040 ------- 0 1.0 4.0 18 31
r 0.2018 2 6 exp 1000 ------- 0 2.0 5.0 4 51
+ 0.2018 6 7 exp 1000 ------- 0 2.0 5.0 4 51
r 0.203448 6 7 tcp 1040 ------- 0 1.0 4.0 16 28
+ 0.203448 7 4 tcp 1040 ------- 0 1.0 4.0 16 28
- 0.203448 7 4 tcp 1040 ------- 0 1.0 4.0 16 28
r 0.20528 7 4 tcp 1040 ------- 0 1.0 4.0 16 28
+ 0.20528 4 7 ack 40 ------- 0 4.0 1.0 16 52
- 0.20528 4 7 ack 40 ------- 0 4.0 1.0 16 52
r 0.206312 4 7 ack 40 ------- 0 4.0 1.0 16 52
+ 0.206312 7 6 ack 40 ------- 0 4.0 1.0 16 52
- 0.206312 7 6 ack 40 ------- 0 4.0 1.0 16 52
r 0.208312 7 6 ack 40 ------- 0 4.0 1.0 15 50
+ 0.208312 6 1 ack 40 ------- 0 4.0 1.0 15 50
- 0.208312 6 1 ack 40 ------- 0 4.0 1.0 15 50
r 0.209344 6 1 ack 40 ------- 0 4.0 1.0 15 50
+ 0.209344 1 6 tcp 1040 ------- 0 1.0 4.0 31 53
- 0.209344 1 6 tcp 1040 ------- 0 1.0 4.0 31 53
+ 0.209344 1 6 tcp 1040 ------- 0 1.0 4.0 32 54
- 0.210088 6 7 tcp 1040 ------- 0 1.0 4.0 19 33
- 0.210176 1 6 tcp 1040 ------- 0 1.0 4.0 32 54
r 0.211176 1 6 tcp 1040 ------- 0 1.0 4.0 31 53
+ 0.211176 6 7 tcp 1040 ------- 0 1.0 4.0 31 53
r 0.211768 6 7 tcp 1040 ------- 0 1.0 4.0 17 30
+ 0.211768 7 4 tcp 1040 ------- 0 1.0 4.0 17 30
- 0.211768 7 4 tcp 1040 ------- 0 1.0 4.0 17 30
r 0.212008 1 6 tcp 1040 ------- 0 1.0 4.0 32 54
+ 0.212008 6 7 tcp 1040 ------- 0 1.0 4.0 32 54
r 0.2136 7 4 tcp 1040 ------- 0 1.0 4.0 17 30
+ 0.2136 4 7 ack 40 ------- 0 4.0 1.0 17 55
- 0.2136 4 7 ack 40 ------- 0 4.0 1.0 17 55
r 0.214632 4 7 ack 40 ------- 0 4.0 1.0 17 55
+ 0.214632 7 6 ack 40 ------- 0 4.0 1.0 17 55
- 0.214632 7 6 ack 40 ------- 0 4.0 1.0 17 55
r 0.216632 7 6 ack 40 ------- 0 4.0 1.0 16 52
+ 0.216632 6 1 ack 40 ------- 0 4.0 1.0 16 52
- 0.216632 6 1 ack 40 ------- 0 4.0 1.0 16 52
r 0.217664 6 1 ack 40 ------- 0 4.0 1.0 16 52
+ 0.217664 1 6 tcp 1040 ------- 0 1.0 4.0 33 56
- 0.217664 1 6 tcp 1040 ------- 0 1.0 4.0 33 56
+ 0.217664 1 6 tcp 1040 ------- 0 1.0 4.0 34 57
- 0.218408 6 7 tcp 1040 ------- 0 1.0 4.0 20 34
- 0.218496 1 6 tcp 1040 ------- 0 1.0 4.0 34 57
r 0.219496 1 6 tcp 1040 ------- 0 1.0 4.0 33 56
+ 0.219496 6 7 tcp 1040 ------- 0 1.0 4.0 33 56
r 0.220088 6 7 tcp 1040 ------- 0 1.0 4.0 18 31
+ 0.220088 7 4 tcp 1040 ------- 0 1.0 4.0 18 31
- 0.220088 7 4 tcp 1040 ------- 0 1.0 4.0 18 31
r 0.220328 1 6 tcp 1040 ------- 0 1.0 4.0 34 57
+ 0.220328 6 7 tcp 1040 ------- 0 1.0 4.0 34 57
r 0.22192 7 4 tcp 1040 ------- 0 1.0 4.0 18 31
+ 0.22192 4 7 ack 40 ------- 0 4.0 1.0 18 58
- 0.22192 4 7 ack 40 ------- 0 4.0 1.0 18 58
r 0.222952 4 7 ack 40 ------- 0 4.0 1.0 18 58
+ 0.222952 7 6 ack 40 ------- 0 4.0 1.0 18 58
- 0.222952 7 6 ack 40 ------- 0 4.0 1.0 18 58
r 0.224952 7 6 ack 40 ------- 0 4.0 1.0 17 55
+ 0.224952 6 1 ack 40 ------- 0 4.0 1.0 17 55
- 0.224952 6 1 ack 40 ------- 0 4.0 1.0 17 55
r 0.225984 6 1 ack 40 ------- 0 4.0 1.0 17 55
+ 0.225984 1 6 tcp 1040 ------- 0 1.0 4.0 35 59
- 0.225984 1 6 tcp 1040 ------- 0 1.0 4.0 35 59
+ 0.225984 1 6 tcp 1040 ------- 0 1.0 4.0 36 60
- 0.226728 6 7 tcp 1040 ------- 0 1.0 4.0 21 36
- 0.226816 1 6 tcp 1040 ------- 0 1.0 4.0 36 60
r 0.227816 1 6 tcp 1040 ------- 0 1.0 4.0 35 59
+ 0.227816 6 7 tcp 1040 ------- 0 1.0 4.0 35 59
r 0.228408 6 7 tcp 1040 ------- 0 1.0 4.0 19 33
+ 0.228408 7 4 tcp 1040 ------- 0 1.0 4.0 19 33
- 0.228408 7 4 tcp 1040 ------- 0 1.0 4.0 19 33
r 0.228648 1 6 tcp 1040 ------- 0 1.0 4.0 36 60
+ 0.228648 6 7 tcp 1040 ------- 0 1.0 4.0 36 60
r 0.23024 7 4 tcp 1040 ------- 0 1.0 4.0 19 33
+ 0.23024 4 7 ack 40 ------- 0 4.0 1.0 19 61
- 0.23024 4 7 ack 40 ------- 0 4.0 1.0 19 61
r 0.231272 4 7 ack 40 ------- 0 4.0 1.0 19 61
+ 0.231272 7 6 ack 40 ------- 0 4.0 1.0 19 61
- 0.231272 7 6 ack 40 ------- 0 4.0 1.0 19 61
r 0.233272 7 6 ack 40 ------- 0 4.0 1.0 18 58
+ 0.233272 6 1 ack 40 ------- 0 4.0 1.0 18 58
- 0.233272 6 1 ack 40 ------- 0 4.0 1.0 18 58
r 0.234304 6 1 ack 40 ------- 0 4.0 1.0 18 58
+ 0.234304 1 6 tcp 1040 ------- 0 1.0 4.0 37 62
- 0.234304 1 6 tcp 1040 ------- 0 1.0 4.0 37 62
+ 0.234304 1 6 tcp 1040 ------- 0 1.0 4.0 38 63
- 0.235048 6 7 exp 1000 ------- 0 2.0 5.0 3 38
- 0.235136 1 6 tcp 1040 ------- 0 1.0 4.0 38 63
r 0.236136 1 6 tcp 1040 ------- 0 1.0 4.0 37 62
+ 0.236136 6 7 tcp 1040 ------- 0 1.0 4.0 37 62
r 0.236728 6 7 tcp 1040 ------- 0 1.0 4.0 20 34
+ 0.236728 7 4 tcp 1040 ------- 0 1.0 4.0 20 34
- 0.236728 7 4 tcp 1040 ------- 0 1.0 4.0 20 34
r 0.236968 1 6 tcp 1040 ------- 0 1.0 4.0 38 63
+ 0.236968 6 7 tcp 1040 ------- 0 1.0 4.0 38 63
r 0.23856 7 4 tcp 1040 ------- 0 1.0 4.0 20 34
+ 0.23856 4 7 ack 40 ------- 0 4.0 1.0 20 64
- 0.23856 4 7 ack 40 ------- 0 4.0 1.0 20 64
r 0.239592 4 7 ack 40 ------- 0 4.0 1.0 20 64
+ 0.239592 7 6 ack 40 ------- 0 4.0 1.0 20 64
- 0.239592 7 6 ack 40 ------- 0 4.0 1.0 20 64
+ 0.24 2 6 exp 1000 ------- 0 2.0 5.0 5 65
- 0.24 2 6 exp 1000 ------- 0 2.0 5.0 5 65
r 0.241592 7 6 ack 40 ------- 0 4.0 1.0 19 61
+ 0.241592 6 1 ack 40 ------- 0 4.0 1.0 19 61
- 0.241592 6 1 ack 40 ------- 0 4.0 1.0 19 61
r 0.2418 2 6 exp 1000 ------- 0 2.0 5.0 5 65
+ 0.2418 6 7 exp 1000 ------- 0 2.0 5.0 5 65
r 0.242624 6 1 ack 40 ------- 0 4.0 1.0 19 61
+ 0.242624 1 6 tcp 1040 ------- 0 1.0 4.0 39 66
- 0.242624 1 6 tcp 1040 ------- 0 1.0 4.0 39 66
- 0.243048 6 7 tcp 1040 ------- 0 1.0 4.0 22 37
r 0.244456 1 6 tcp 1040 ------- 0 1.0 4.0 39 66
+ 0.244456 6 7 tcp 1040 ------- 0 1.0 4.0 39 66
r 0.245048 6 7 tcp 1040 ------- 0 1.0 4.0 21 36
+ 0.245048 7 4 tcp 1040 ------- 0 1.0 4.0 21 36
- 0.245048 7 4 tcp 1040 ------- 0 1.0 4.0 21 36
r 0.24688 7 4 tcp 1040 ------- 0 1.0 4.0 21 36
+ 0.24688 4 7 ack 40 ------- 0 4.0 1.0 21 67
- 0.24688 4 7 ack 40 ------- 0 4.0 1.0 21 67
r 0.247912 4 7 ack 40 ------- 0 4.0 1.0 21 67
+ 0.247912 7 6 ack 40 ------- 0 4.0 1.0 21 67
- 0.247912 7 6 ack 40 ------- 0 4.0 1.0 21 67
r 0.249912 7 6 ack 40 ------- 0 4.0 1.0 20 64
+ 0.249912 6 1 ack 40 ------- 0 4.0 1.0 20 64
- 0.249912 6 1 ack 40 ------- 0 4.0 1.0 20 64
r 0.250944 6 1 ack 40 ------- 0 4.0 1.0 20 64
+ 0.250944 1 6 tcp 1040 ------- 0 1.0 4.0 40 68
- 0.250944 1 6 tcp 1040 ------- 0 1.0 4.0 40 68
- 0.251368 6 7 tcp 1040 ------- 0 1.0 4.0 23 40
r 0.252776 1 6 tcp 1040 ------- 0 1.0 4.0 40 68
+ 0.252776 6 7 tcp 1040 ------- 0 1.0 4.0 40 68
r 0.253048 6 7 exp 1000 ------- 0 2.0 5.0 3 38
+ 0.253048 7 5 exp 1000 ------- 0 2.0 5.0 3 38
- 0.253048 7 5 exp 1000 ------- 0 2.0 5.0 3 38
r 0.254848 7 5 exp 1000 ------- 0 2.0 5.0 3 38
r 0.258232 7 6 ack 40 ------- 0 4.0 1.0 21 67
+ 0.258232 6 1 ack 40 ------- 0 4.0 1.0 21 67
- 0.258232 6 1 ack 40 ------- 0 4.0 1.0 21 67
r 0.259264 6 1 ack 40 ------- 0 4.0 1.0 21 67
+ 0.259264 1 6 tcp 1040 ------- 0 1.0 4.0 41 69
- 0.259264 1 6 tcp 1040 ------- 0 1.0 4.0 41 69
- 0.259688 6 7 tcp 1040 ------- 0 1.0 4.0 24 41
r 0.261096 1 6 tcp 1040 ------- 0 1.0 4.0 41 69
+ 0.261096 6 7 tcp 1040 ------- 0 1.0 4.0 41 69
r 0.261368 6 7 tcp 1040 ------- 0 1.0 4.0 22 37
+ 0.261368 7 4 tcp 1040 ------- 0 1.0 4.0 22 37
- 0.261368 7 4 tcp 1040 ------- 0 1.0 4.0 22 37
r 0.2632 7 4 tcp 1040 ------- 0 1.0 4.0 22 37
+ 0.2632 4 7 ack 40 ------- 0 4.0 1.0 22 70
- 0.2632 4 7 ack 40 ------- 0 4.0 1.0 22 70
r 0.264232 4 7 ack 40 ------- 0 4.0 1.0 22 70
+ 0.264232 7 6 ack 40 ------- 0 4.0 1.0 22 70
- 0.264232 7 6 ack 40 ------- 0 4.0 1.0 22 70
- 0.268008 6 7 tcp 1040 ------- 0 1.0 4.0 25 43
r 0.269688 6 7 tcp 1040 ------- 0 1.0 4.0 23 40
+ 0.269688 7 4 tcp 1040 ------- 0 1.0 4.0 23 40
- 0.269688 7 4 tcp 1040 ------- 0 1.0 4.0 23 40
r 0.27152 7 4 tcp 1040 ------- 0 1.0 4.0 23 40
+ 0.27152 4 7 ack 40 ------- 0 4.0 1.0 23 71
- 0.27152 4 7 ack 40 ------- 0 4.0 1.0 23 71
r 0.272552 4 7 ack 40 ------- 0 4.0 1.0 23 71
+ 0.272552 7 6 ack 40 ------- 0 4.0 1.0 23 71
- 0.272552 7 6 ack 40 ------- 0 4.0 1.0 23 71
r 0.274552 7 6 ack 40 ------- 0 4.0 1.0 22 70
+ 0.274552 6 1 ack 40 ------- 0 4.0 1.0 22 70
- 0.274552 6 1 ack 40 ------- 0 4.0 1.0 22 70
r 0.275584 6 1 ack 40 ------- 0 4.0 1.0 22 70
+ 0.275584 1 6 tcp 1040 ------- 0 1.0 4.0 42 72
- 0.275584 1 6 tcp 1040 ------- 0 1.0 4.0 42 72
- 0.276328 6 7 tcp 1040 ------- 0 1.0 4.0 26 44
r 0.277416 1 6 tcp 1040 ------- 0 1.0 4.0 42 72
+ 0.277416 6 7 tcp 1040 ------- 0 1.0 4.0 42 72
r 0.278008 6 7 tcp 1040 ------- 0 1.0 4.0 24 41
+ 0.278008 7 4 tcp 1040 ------- 0 1.0 4.0 24 41
- 0.278008 7 4 tcp 1040 ------- 0 1.0 4.0 24 41
r 0.27984 7 4 tcp 1040 ------- 0 1.0 4.0 24 41
+ 0.27984 4 7 ack 40 ------- 0 4.0 1.0 24 73
- 0.27984 4 7 ack 40 ------- 0 4.0 1.0 24 73
+ 0.28 2 6 exp 1000 ------- 0 2.0 5.0 6 74
- 0.28 2 6 exp 1000 ------- 0 2.0 5.0 6 74
r 0.280872 4 7 ack 40 ------- 0 4.0 1.0 24 73
+ 0.280872 7 6 ack 40 ------- 0 4.0 1.0 24 73
- 0.280872 7 6 ack 40 ------- 0 4.0 1.0 24 73
r 0.2818 2 6 exp 1000 ------- 0 2.0 5.0 6 74
+ 0.2818 6 7 exp 1000 ------- 0 2.0 5.0 6 74
r 0.282872 7 6 ack 40 ------- 0 4.0 1.0 23 71
+ 0.282872 6 1 ack 40 ------- 0 4.0 1.0 23 71
- 0.282872 6 1 ack 40 ------- 0 4.0 1.0 23 71
r 0.283904 6 1 ack 40 ------- 0 4.0 1.0 23 71
+ 0.283904 1 6 tcp 1040 ------- 0 1.0 4.0 43 75
- 0.283904 1 6 tcp 1040 ------- 0 1.0 4.0 43 75
- 0.284648 6 7 tcp 1040 ------- 0 1.0 4.0 27 46
r 0.285736 1 6 tcp 1040 ------- 0 1.0 4.0 43 75
+ 0.285736 6 7 tcp 1040 ------- 0 1.0 4.0 43 75
r 0.286328 6 7 tcp 1040 ------- 0 1.0 4.0 25 43
+ 0.286328 7 4 tcp 1040 ------- 0 1.0 4.0 25 43
- 0.286328 7 4 tcp 1040 ------- 0 1.0 4.0 25 43
r 0.28816 7 4 tcp 1040 ------- 0 1.0 4.0 25 43
+ 0.28816 4 7 ack 40 ------- 0 4.0 1.0 25 76
- 0.28816 4 7 ack 40 ------- 0 4.0 1.0 25 76
r 0.289192 4 7 ack 40 ------- 0 4.0 1.0 25 76
+ 0.289192 7 6 ack 40 ------- 0 4.0 1.0 25 76
- 0.289192 7 6 ack 40 ------- 0 4.0 1.0 25 76
r 0.291192 7 6 ack 40 ------- 0 4.0 1.0 24 73
+ 0.291192 6 1 ack 40 ------- 0 4.0 1.0 24 73
- 0.291192 6 1 ack 40 ------- 0 4.0 1.0 24 73
r 0.292224 6 1 ack 40 ------- 0 4.0 1.0 24 73
+ 0.292224 1 6 tcp 1040 ------- 0 1.0 4.0 44 77
- 0.292224 1 6 tcp 1040 ------- 0 1.0 4.0 44 77
- 0.292968 6 7 tcp 1040 ------- 0 1.0 4.0 28 47
r 0.294056 1 6 tcp 1040 ------- 0 1.0 4.0 44 77
+ 0.294056 6 7 tcp 1040 ------- 0 1.0 4.0 44 77
r 0.294648 6 7 tcp 1040 ------- 0 1.0 4.0 26 44
+ 0.294648 7 4 tcp 1040 ------- 0 1.0 4.0 26 44
- 0.294648 7 4 tcp 1040 ------- 0 1.0 4.0 26 44
r 0.29648 7 4 tcp 1040 ------- 0 1.0 4.0 26 44
+ 0.29648 4 7 ack 40 ------- 0 4.0 1.0 26 78
- 0.29648 4 7 ack 40 ------- 0 4.0 1.0 26 78
r 0.297512 4 7 ack 40 ------- 0 4.0 1.0 26 78
+ 0.297512 7 6 ack 40 ------- 0 4.0 1.0 26 78
- 0.297512 7 6 ack 40 ------- 0 4.0 1.0 26 78
r 0.299512 7 6 ack 40 ------- 0 4.0 1.0 25 76
+ 0.299512 6 1 ack 40 ------- 0 4.0 1.0 25 76
- 0.299512 6 1 ack 40 ------- 0 4.0 1.0 25 76
r 0.300544 6 1 ack 40 ------- 0 4.0 1.0 25 76
+ 0.300544 1 6 tcp 1040 ------- 0 1.0 4.0 45 79
- 0.300544 1 6 tcp 1040 ------- 0 1.0 4.0 45 79
- 0.301288 6 7 tcp 1040 ------- 0 1.0 4.0 29 48
r 0.302376 1 6 tcp 1040 ------- 0 1.0 4.0 45 79
+ 0.302376 6 7 tcp 1040 ------- 0 1.0 4.0 45 79
r 0.302968 6 7 tcp 1040 ------- 0 1.0 4.0 27 46
+ 0.302968 7 4 tcp 1040 ------- 0 1.0 4.0 27 46
- 0.302968 7 4 tcp 1040 ------- 0 1.0 4.0 27 46
r 0.3048 7 4 tcp 1040 ------- 0 1.0 4.0 27 46
+ 0.3048 4 7 ack 40 ------- 0 4.0 1.0 27 80
- 0.3048 4 7 ack 40 ------- 0 4.0 1.0 27 80
r 0.305832 4 7 ack 40 ------- 0 4.0 1.0 27 80
+ 0.305832 7 6 ack 40 ------- 0 4.0 1.0 27 80
- 0.305832 7 6 ack 40 ------- 0 4.0 1.0 27 80
r 0.307832 7 6 ack 40 ------- 0 4.0 1.0 26 78
+ 0.307832 6 1 ack 40 ------- 0 4.0 1.0 26 78
- 0.307832 6 1 ack 40 ------- 0 4.0 1.0 26 78
r 0.308864 6 1 ack 40 ------- 0 4.0 1.0 26 78
+ 0.308864 1 6 tcp 1040 ------- 0 1.0 4.0 46 81
- 0.308864 1 6 tcp 1040 ------- 0 1.0 4.0 46 81
- 0.309608 6 7 tcp 1040 ------- 0 1.0 4.0 30 49
r 0.310696 1 6 tcp 1040 ------- 0 1.0 4.0 46 81
+ 0.310696 6 7 tcp 1040 ------- 0 1.0 4.0 46 81
r 0.311288 6 7 tcp 1040 ------- 0 1.0 4.0 28 47
+ 0.311288 7 4 tcp 1040 ------- 0 1.0 4.0 28 47
- 0.311288 7 4 tcp 1040 ------- 0 1.0 4.0 28 47
r 0.31312 7 4 tcp 1040 ------- 0 1.0 4.0 28 47
+ 0.31312 4 7 ack 40 ------- 0 4.0 1.0 28 82
- 0.31312 4 7 ack 40 ------- 0 4.0 1.0 28 82
r 0.314152 4 7 ack 40 ------- 0 4.0 1.0 28 82
+ 0.314152 7 6 ack 40 ------- 0 4.0 1.0 28 82
- 0.314152 7 6 ack 40 ------- 0 4.0 1.0 28 82
r 0.316152 7 6 ack 40 ------- 0 4.0 1.0 27 80
+ 0.316152 6 1 ack 40 ------- 0 4.0 1.0 27 80
- 0.316152 6 1 ack 40 ------- 0 4.0 1.0 27 80
r 0.317184 6 1 ack 40 ------- 0 4.0 1.0 27 80
+ 0.317184 1 6 tcp 1040 ------- 0 1.0 4.0 47 83
- 0.317184 1 6 tcp 1040 ------- 0 1.0 4.0 47 83
- 0.317928 6 7 exp 1000 ------- 0 2.0 5.0 4 51
r 0.319016 1 6 tcp 1040 ------- 0 1.0 4.0 47 83
+ 0.319016 6 7 tcp 1040 ------- 0 1.0 4.0 47 83
r 0.319608 6 7 tcp 1040 ------- 0 1.0 4.0 29 48
+ 0.319608 7 4 tcp 1040 ------- 0 1.0 4.0 29 48