+ 0 1 6 tcp 40 ------- 0 1.0 4.0 0 0
- 0 1 6 tcp 40 ------- 0 1.0 4.0 0 0
r 0.001032 1 6 tcp 40 ------- 0 1.0 4.0 0 0
+ 0.001032 6 7 tcp 40 ------- 0 1.0 4.0 0 0
- 0.001032 6 7 tcp 40 ------- 0 1.0 4.0 0 0
r 0.011352 6 7 tcp 40 ------- 0 1.0 4.0 0 0
+ 0.011352 7 4 tcp 40 ------- 0 1.0 4.0 0 0
- 0.011352 7 4 tcp 40 ------- 0 1.0 4.0 0 0
r 0.012384 7 4 tcp 40 ------- 0 1.0 4.0 0 0
+ 0.012384 4 7 ack 40 ------- 0 4.0 1.0 0 1
- 0.012384 4 7 ack 40 ------- 0 4.0 1.0 0 1
r 0.013416 4 7 ack 40 ------- 0 4.0 1.0 0 1
+ 0.013416 7 6 ack 40 ------- 0 4.0 1.0 0 1
- 0.013416 7 6 ack 40 ------- 0 4.0 1.0 0 1
r 0.023736 7 6 ack 40 ------- 0 4.0 1.0 0 1
+ 0.023736 6 1 ack 40 ------- 0 4.0 1.0 0 1
- 0.023736 6 1 ack 40 ------- 0 4.0 1.0 0 1
r 0.024768 6 1 ack 40 ------- 0 4.0 1.0 0 1
+ 0.024768 1 6 tcp 1040 ------- 0 1.0 4.0 1 2
- 0.024768 1 6 tcp 1040 ------- 0 1.0 4.0 1 2
+ 0.024768 1 6 tcp 1040 ------- 0 1.0 4.0 2 3
- 0.0256 1 6 tcp 1040 ------- 0 1.0 4.0 2 3
r 0.0266 1 6 tcp 1040 ------- 0 1.0 4.0 1 2
+ 0.0266 6 7 tcp 1040 ------- 0 1.0 4.0 1 2
- 0.0266 6 7 tcp 1040 ------- 0 1.0 4.0 1 2
+ 0.026667 2 6 exp 1000 ------- 0 2.0 5.0 0 4
- 0.026667 2 6 exp 1000 ------- 0 2.0 5.0 0 4
r 0.027432 1 6 tcp 1040 ------- 0 1.0 4.0 2 3
+ 0.027432 6 7 tcp 1040 ------- 0 1.0 4.0 2 3
r 0.028467 2 6 exp 1000 ------- 0 2.0 5.0 0 4
+ 0.028467 6 7 exp 1000 ------- 0 2.0 5.0 0 4
- 0.03492 6 7 tcp 1040 ------- 0 1.0 4.0 2 3
- 0.04324 6 7 exp 1000 ------- 0 2.0 5.0 0 4
r 0.04492 6 7 tcp 1040 ------- 0 1.0 4.0 1 2
+ 0.04492 7 4 tcp 1040 ------- 0 1.0 4.0 1 2
- 0.04492 7 4 tcp 1040 ------- 0 1.0 4.0 1 2
r 0.046752 7 4 tcp 1040 ------- 0 1.0 4.0 1 2
+ 0.046752 4 7 ack 40 ------- 0 4.0 1.0 1 5
- 0.046752 4 7 ack 40 ------- 0 4.0 1.0 1 5
r 0.047784 4 7 ack 40 ------- 0 4.0 1.0 1 5
+ 0.047784 7 6 ack 40 ------- 0 4.0 1.0 1 5
- 0.047784 7 6 ack 40 ------- 0 4.0 1.0 1 5
r 0.05324 6 7 tcp 1040 ------- 0 1.0 4.0 2 3
+ 0.05324 7 4 tcp 1040 ------- 0 1.0 4.0 2 3
- 0.05324 7 4 tcp 1040 ------- 0 1.0 4.0 2 3
+ 0.053333 2 6 exp 1000 ------- 0 2.0 5.0 1 6
- 0.053333 2 6 exp 1000 ------- 0 2.0 5.0 1 6
r 0.055072 7 4 tcp 1040 ------- 0 1.0 4.0 2 3
+ 0.055072 4 7 ack 40 ------- 0 4.0 1.0 2 7
- 0.055072 4 7 ack 40 ------- 0 4.0 1.0 2 7
r 0.055133 2 6 exp 1000 ------- 0 2.0 5.0 1 6
+ 0.055133 6 7 exp 1000 ------- 0 2.0 5.0 1 6
- 0.055133 6 7 exp 1000 ------- 0 2.0 5.0 1 6
r 0.056104 4 7 ack 40 ------- 0 4.0 1.0 2 7
+ 0.056104 7 6 ack 40 ------- 0 4.0 1.0 2 7
- 0.056104 7 6 ack 40 ------- 0 4.0 1.0 2 7
r 0.058104 7 6 ack 40 ------- 0 4.0 1.0 1 5
+ 0.058104 6 1 ack 40 ------- 0 4.0 1.0 1 5
- 0.058104 6 1 ack 40 ------- 0 4.0 1.0 1 5
r 0.059136 6 1 ack 40 ------- 0 4.0 1.0 1 5
+ 0.059136 1 6 tcp 1040 ------- 0 1.0 4.0 3 8
- 0.059136 1 6 tcp 1040 ------- 0 1.0 4.0 3 8
+ 0.059136 1 6 tcp 1040 ------- 0 1.0 4.0 4 9
- 0.059968 1 6 tcp 1040 ------- 0 1.0 4.0 4 9
r 0.060968 1 6 tcp 1040 ------- 0 1.0 4.0 3 8
+ 0.060968 6 7 tcp 1040 ------- 0 1.0 4.0 3 8
r 0.06124 6 7 exp 1000 ------- 0 2.0 5.0 0 4
+ 0.06124 7 5 exp 1000 ------- 0 2.0 5.0 0 4
- 0.06124 7 5 exp 1000 ------- 0 2.0 5.0 0 4
r 0.0618 1 6 tcp 1040 ------- 0 1.0 4.0 4 9
+ 0.0618 6 7 tcp 1040 ------- 0 1.0 4.0 4 9
r 0.06304 7 5 exp 1000 ------- 0 2.0 5.0 0 4
- 0.063133 6 7 tcp 1040 ------- 0 1.0 4.0 3 8
r 0.066424 7 6 ack 40 ------- 0 4.0 1.0 2 7
+ 0.066424 6 1 ack 40 ------- 0 4.0 1.0 2 7
- 0.066424 6 1 ack 40 ------- 0 4.0 1.0 2 7
r 0.067456 6 1 ack 40 ------- 0 4.0 1.0 2 7
+ 0.067456 1 6 tcp 1040 ------- 0 1.0 4.0 5 10
- 0.067456 1 6 tcp 1040 ------- 0 1.0 4.0 5 10
+ 0.067456 1 6 tcp 1040 ------- 0 1.0 4.0 6 11
- 0.068288 1 6 tcp 1040 ------- 0 1.0 4.0 6 11
r 0.069288 1 6 tcp 1040 ------- 0 1.0 4.0 5 10
+ 0.069288 6 7 tcp 1040 ------- 0 1.0 4.0 5 10
r 0.07012 1 6 tcp 1040 ------- 0 1.0 4.0 6 11
+ 0.07012 6 7 tcp 1040 ------- 0 1.0 4.0 6 11
- 0.071453 6 7 tcp 1040 ------- 0 1.0 4.0 4 9
r 0.073133 6 7 exp 1000 ------- 0 2.0 5.0 1 6
+ 0.073133 7 5 exp 1000 ------- 0 2.0 5.0 1 6
- 0.073133 7 5 exp 1000 ------- 0 2.0 5.0 1 6
r 0.074933 7 5 exp 1000 ------- 0 2.0 5.0 1 6
- 0.079773 6 7 tcp 1040 ------- 0 1.0 4.0 5 10
+ 0.08 2 6 exp 1000 ------- 0 2.0 5.0 2 12
- 0.08 2 6 exp 1000 ------- 0 2.0 5.0 2 12
r 0.081453 6 7 tcp 1040 ------- 0 1.0 4.0 3 8
+ 0.081453 7 4 tcp 1040 ------- 0 1.0 4.0 3 8
- 0.081453 7 4 tcp 1040 ------- 0 1.0 4.0 3 8
r 0.0818 2 6 exp 1000 ------- 0 2.0 5.0 2 12
+ 0.0818 6 7 exp 1000 ------- 0 2.0 5.0 2 12
r 0.083285 7 4 tcp 1040 ------- 0 1.0 4.0 3 8
+ 0.083285 4 7 ack 40 ------- 0 4.0 1.0 3 13
- 0.083285 4 7 ack 40 ------- 0 4.0 1.0 3 13
r 0.084317 4 7 ack 40 ------- 0 4.0 1.0 3 13
+ 0.084317 7 6 ack 40 ------- 0 4.0 1.0 3 13
- 0.084317 7 6 ack 40 ------- 0 4.0 1.0 3 13
- 0.088093 6 7 tcp 1040 ------- 0 1.0 4.0 6 11
r 0.089773 6 7 tcp 1040 ------- 0 1.0 4.0 4 9
+ 0.089773 7 4 tcp 1040 ------- 0 1.0 4.0 4 9
- 0.089773 7 4 tcp 1040 ------- 0 1.0 4.0 4 9
r 0.091605 7 4 tcp 1040 ------- 0 1.0 4.0 4 9
+ 0.091605 4 7 ack 40 ------- 0 4.0 1.0 4 14
- 0.091605 4 7 ack 40 ------- 0 4.0 1.0 4 14
r 0.092637 4 7 ack 40 ------- 0 4.0 1.0 4 14
+ 0.092637 7 6 ack 40 ------- 0 4.0 1.0 4 14
- 0.092637 7 6 ack 40 ------- 0 4.0 1.0 4 14
r 0.094637 7 6 ack 40 ------- 0 4.0 1.0 3 13
+ 0.094637 6 1 ack 40 ------- 0 4.0 1.0 3 13
- 0.094637 6 1 ack 40 ------- 0 4.0 1.0 3 13
r 0.095669 6 1 ack 40 ------- 0 4.0 1.0 3 13
+ 0.095669 1 6 tcp 1040 ------- 0 1.0 4.0 7 15
- 0.095669 1 6 tcp 1040 ------- 0 1.0 4.0 7 15
+ 0.095669 1 6 tcp 1040 ------- 0 1.0 4.0 8 16
- 0.096413 6 7 exp 1000 ------- 0 2.0 5.0 2 12
- 0.096501 1 6 tcp 1040 ------- 0 1.0 4.0 8 16
r 0.097501 1 6 tcp 1040 ------- 0 1.0 4.0 7 15
+ 0.097501 6 7 tcp 1040 ------- 0 1.0 4.0 7 15
r 0.098093 6 7 tcp 1040 ------- 0 1.0 4.0 5 10
+ 0.098093 7 4 tcp 1040 ------- 0 1.0 4.0 5 10
- 0.098093 7 4 tcp 1040 ------- 0 1.0 4.0 5 10
r 0.098333 1 6 tcp 1040 ------- 0 1.0 4.0 8 16
+ 0.098333 6 7 tcp 1040 ------- 0 1.0 4.0 8 16
r 0.099925 7 4 tcp 1040 ------- 0 1.0 4.0 5 10
+ 0.099925 4 7 ack 40 ------- 0 4.0 1.0 5 17
- 0.099925 4 7 ack 40 ------- 0 4.0 1.0 5 17
r 0.100957 4 7 ack 40 ------- 0 4.0 1.0 5 17
+ 0.100957 7 6 ack 40 ------- 0 4.0 1.0 5 17
- 0.100957 7 6 ack 40 ------- 0 4.0 1.0 5 17
r 0.102957 7 6 ack 40 ------- 0 4.0 1.0 4 14
+ 0.102957 6 1 ack 40 ------- 0 4.0 1.0 4 14
- 0.102957 6 1 ack 40 ------- 0 4.0 1.0 4 14
r 0.103989 6 1 ack 40 ------- 0 4.0 1.0 4 14
+ 0.103989 1 6 tcp 1040 ------- 0 1.0 4.0 9 18
- 0.103989 1 6 tcp 1040 ------- 0 1.0 4.0 9 18
+ 0.103989 1 6 tcp 1040 ------- 0 1.0 4.0 10 19
- 0.104413 6 7 tcp 1040 ------- 0 1.0 4.0 7 15
- 0.104821 1 6 tcp 1040 ------- 0 1.0 4.0 10 19
r 0.105821 1 6 tcp 1040 ------- 0 1.0 4.0 9 18
+ 0.105821 6 7 tcp 1040 ------- 0 1.0 4.0 9 18
r 0.106413 6 7 tcp 1040 ------- 0 1.0 4.0 6 11
+ 0.106413 7 4 tcp 1040 ------- 0 1.0 4.0 6 11
- 0.106413 7 4 tcp 1040 ------- 0 1.0 4.0 6 11
r 0.106653 1 6 tcp 1040 ------- 0 1.0 4.0 10 19
+ 0.106653 6 7 tcp 1040 ------- 0 1.0 4.0 10 19
+ 0.106667 2 6 exp 1000 ------- 0 2.0 5.0 3 20
- 0.106667 2 6 exp 1000 ------- 0 2.0 5.0 3 20
r 0.108245 7 4 tcp 1040 ------- 0 1.0 4.0 6 11
+ 0.108245 4 7 ack 40 ------- 0 4.0 1.0 6 21
- 0.108245 4 7 ack 40 ------- 0 4.0 1.0 6 21
r 0.108467 2 6 exp 1000 ------- 0 2.0 5.0 3 20
+ 0.108467 6 7 exp 1000 ------- 0 2.0 5.0 3 20
r 0.109277 4 7 ack 40 ------- 0 4.0 1.0 6 21
+ 0.109277 7 6 ack 40 ------- 0 4.0 1.0 6 21
- 0.109277 7 6 ack 40 ------- 0 4.0 1.0 6 21
r 0.111277 7 6 ack 40 ------- 0 4.0 1.0 5 17
+ 0.111277 6 1 ack 40 ------- 0 4.0 1.0 5 17
- 0.111277 6 1 ack 40 ------- 0 4.0 1.0 5 17
r 0.112309 6 1 ack 40 ------- 0 4.0 1.0 5 17
+ 0.112309 1 6 tcp 1040 ------- 0 1.0 4.0 11 22
- 0.112309 1 6 tcp 1040 ------- 0 1.0 4.0 11 22
+ 0.112309 1 6 tcp 1040 ------- 0 1.0 4.0 12 23
- 0.112733 6 7 tcp 1040 ------- 0 1.0 4.0 8 16
- 0.113141 1 6 tcp 1040 ------- 0 1.0 4.0 12 23
r 0.114141 1 6 tcp 1040 ------- 0 1.0 4.0 11 22
+ 0.114141 6 7 tcp 1040 ------- 0 1.0 4.0 11 22
r 0.114413 6 7 exp 1000 ------- 0 2.0 5.0 2 12
+ 0.114413 7 5 exp 1000 ------- 0 2.0 5.0 2 12
- 0.114413 7 5 exp 1000 ------- 0 2.0 5.0 2 12
r 0.114973 1 6 tcp 1040 ------- 0 1.0 4.0 12 23
+ 0.114973 6 7 tcp 1040 ------- 0 1.0 4.0 12 23
r 0.116213 7 5 exp 1000 ------- 0 2.0 5.0 2 12
r 0.119597 7 6 ack 40 ------- 0 4.0 1.0 6 21
+ 0.119597 6 1 ack 40 ------- 0 4.0 1.0 6 21
- 0.119597 6 1 ack 40 ------- 0 4.0 1.0 6 21
r 0.120629 6 1 ack 40 ------- 0 4.0 1.0 6 21
+ 0.120629 1 6 tcp 1040 ------- 0 1.0 4.0 13 24
- 0.120629 1 6 tcp 1040 ------- 0 1.0 4.0 13 24
+ 0.120629 1 6 tcp 1040 ------- 0 1.0 4.0 14 25
- 0.121053 6 7 tcp 1040 ------- 0 1.0 4.0 9 18
- 0.121461 1 6 tcp 1040 ------- 0 1.0 4.0 14 25
r 0.122461 1 6 tcp 1040 ------- 0 1.0 4.0 13 24
+ 0.122461 6 7 tcp 1040 ------- 0 1.0 4.0 13 24
r 0.122733 6 7 tcp 1040 ------- 0 1.0 4.0 7 15
+ 0.122733 7 4 tcp 1040 ------- 0 1.0 4.0 7 15
- 0.122733 7 4 tcp 1040 ------- 0 1.0 4.0 7 15
r 0.123293 1 6 tcp 1040 ------- 0 1.0 4.0 14 25
+ 0.123293 6 7 tcp 1040 ------- 0 1.0 4.0 14 25
r 0.124565 7 4 tcp 1040 ------- 0 1.0 4.0 7 15
+ 0.124565 4 7 ack 40 ------- 0 4.0 1.0 7 26
- 0.124565 4 7 ack 40 ------- 0 4.0 1.0 7 26
r 0.125597 4 7 ack 40 ------- 0 4.0 1.0 7 26
+ 0.125597 7 6 ack 40 ------- 0 4.0 1.0 7 26
- 0.125597 7 6 ack 40 ------- 0 4.0 1.0 7 26
- 0.129373 6 7 tcp 1040 ------- 0 1.0 4.0 10 19
r 0.131053 6 7 tcp 1040 ------- 0 1.0 4.0 8 16
+ 0.131053 7 4 tcp 1040 ------- 0 1.0 4.0 8 16
- 0.131053 7 4 tcp 1040 ------- 0 1.0 4.0 8 16
r 0.132885 7 4 tcp 1040 ------- 0 1.0 4.0 8 16
+ 0.132885 4 7 ack 40 ------- 0 4.0 1.0 8 27
- 0.132885 4 7 ack 40 ------- 0 4.0 1.0 8 27
+ 0.133333 2 6 exp 1000 ------- 0 2.0 5.0 4 28
- 0.133333 2 6 exp 1000 ------- 0 2.0 5.0 4 28
r 0.133917 4 7 ack 40 ------- 0 4.0 1.0 8 27
+ 0.133917 7 6 ack 40 ------- 0 4.0 1.0 8 27
- 0.133917 7 6 ack 40 ------- 0 4.0 1.0 8 27
r 0.135133 2 6 exp 1000 ------- 0 2.0 5.0 4 28
+ 0.135133 6 7 exp 1000 ------- 0 2.0 5.0 4 28
r 0.135917 7 6 ack 40 ------- 0 4.0 1.0 7 26
+ 0.135917 6 1 ack 40 ------- 0 4.0 1.0 7 26
- 0.135917 6 1 ack 40 ------- 0 4.0 1.0 7 26
r 0.136949 6 1 ack 40 ------- 0 4.0 1.0 7 26
+ 0.136949 1 6 tcp 1040 ------- 0 1.0 4.0 15 29
- 0.136949 1 6 tcp 1040 ------- 0 1.0 4.0 15 29
+ 0.136949 1 6 tcp 1040 ------- 0 1.0 4.0 16 30
- 0.137693 6 7 exp 1000 ------- 0 2.0 5.0 3 20
- 0.137781 1 6 tcp 1040 ------- 0 1.0 4.0 16 30
r 0.138781 1 6 tcp 1040 ------- 0 1.0 4.0 15 29
+ 0.138781 6 7 tcp 1040 ------- 0 1.0 4.0 15 29
r 0.139373 6 7 tcp 1040 ------- 0 1.0 4.0 9 18
+ 0.139373 7 4 tcp 1040 ------- 0 1.0 4.0 9 18
- 0.139373 7 4 tcp 1040 ------- 0 1.0 4.0 9 18
r 0.139613 1 6 tcp 1040 ------- 0 1.0 4.0 16 30
+ 0.139613 6 7 tcp 1040 ------- 0 1.0 4.0 16 30
r 0.141205 7 4 tcp 1040 ------- 0 1.0 4.0 9 18
+ 0.141205 4 7 ack 40 ------- 0 4.0 1.0 9 31
- 0.141205 4 7 ack 40 ------- 0 4.0 1.0 9 31
r 0.142237 4 7 ack 40 ------- 0 4.0 1.0 9 31
+ 0.142237 7 6 ack 40 ------- 0 4.0 1.0 9 31
- 0.142237 7 6 ack 40 ------- 0 4.0 1.0 9 31
r 0.144237 7 6 ack 40 ------- 0 4.0 1.0 8 27
+ 0.144237 6 1 ack 40 ------- 0 4.0 1.0 8 27
- 0.144237 6 1 ack 40 ------- 0 4.0 1.0 8 27
r 0.145269 6 1 ack 40 ------- 0 4.0 1.0 8 27
+ 0.145269 1 6 tcp 1040 ------- 0 1.0 4.0 17 32
- 0.145269 1 6 tcp 1040 ------- 0 1.0 4.0 17 32
+ 0.145269 1 6 tcp 1040 ------- 0 1.0 4.0 18 33
- 0.145693 6 7 tcp 1040 ------- 0 1.0 4.0 11 22
- 0.146101 1 6 tcp 1040 ------- 0 1.0 4.0 18 33
r 0.147101 1 6 tcp 1040 ------- 0 1.0 4.0 17 32
+ 0.147101 6 7 tcp 1040 ------- 0 1.0 4.0 17 32
r 0.147693 6 7 tcp 1040 ------- 0 1.0 4.0 10 19
+ 0.147693 7 4 tcp 1040 ------- 0 1.0 4.0 10 19
- 0.147693 7 4 tcp 1040 ------- 0 1.0 4.0 10 19
r 0.147933 1 6 tcp 1040 ------- 0 1.0 4.0 18 33
+ 0.147933 6 7 tcp 1040 ------- 0 1.0 4.0 18 33
r 0.149525 7 4 tcp 1040 ------- 0 1.0 4.0 10 19
+ 0.149525 4 7 ack 40 ------- 0 4.0 1.0 10 34
- 0.149525 4 7 ack 40 ------- 0 4.0 1.0 10 34
r 0.150557 4 7 ack 40 ------- 0 4.0 1.0 10 34
+ 0.150557 7 6 ack 40 ------- 0 4.0 1.0 10 34
- 0.150557 7 6 ack 40 ------- 0 4.0 1.0 10 34
r 0.152557 7 6 ack 40 ------- 0 4.0 1.0 9 31
+ 0.152557 6 1 ack 40 ------- 0 4.0 1.0 9 31
- 0.152557 6 1 ack 40 ------- 0 4.0 1.0 9 31
r 0.153589 6 1 ack 40 ------- 0 4.0 1.0 9 31
+ 0.153589 1 6 tcp 1040 ------- 0 1.0 4.0 19 35
- 0.153589 1 6 tcp 1040 ------- 0 1.0 4.0 19 35
+ 0.153589 1 6 tcp 1040 ------- 0 1.0 4.0 20 36
- 0.154013 6 7 tcp 1040 ------- 0 1.0 4.0 12 23
- 0.154421 1 6 tcp 1040 ------- 0 1.0 4.0 20 36
r 0.155421 1 6 tcp 1040 ------- 0 1.0 4.0 19 35
+ 0.155421 6 7 tcp 1040 ------- 0 1.0 4.0 19 35
r 0.155693 6 7 exp 1000 ------- 0 2.0 5.0 3 20
+ 0.155693 7 5 exp 1000 ------- 0 2.0 5.0 3 20
- 0.155693 7 5 exp 1000 ------- 0 2.0 5.0 3 20
r 0.156253 1 6 tcp 1040 ------- 0 1.0 4.0 20 36
+ 0.156253 6 7 tcp 1040 ------- 0 1.0 4.0 20 36
r 0.157493 7 5 exp 1000 ------- 0 2.0 5.0 3 20
+ 0.16 2 6 exp 1000 ------- 0 2.0 5.0 5 37
- 0.16 2 6 exp 1000 ------- 0 2.0 5.0 5 37
r 0.160877 7 6 ack 40 ------- 0 4.0 1.0 10 34
+ 0.160877 6 1 ack 40 ------- 0 4.0 1.0 10 34
- 0.160877 6 1 ack 40 ------- 0 4.0 1.0 10 34
r 0.1618 2 6 exp 1000 ------- 0 2.0 5.0 5 37
+ 0.1618 6 7 exp 1000 ------- 0 2.0 5.0 5 37
r 0.161909 6 1 ack 40 ------- 0 4.0 1.0 10 34
+ 0.161909 1 6 tcp 1040 ------- 0 1.0 4.0 21 38
- 0.161909 1 6 tcp 1040 ------- 0 1.0 4.0 21 38
+ 0.161909 1 6 tcp 1040 ------- 0 1.0 4.0 22 39
- 0.162333 6 7 tcp 1040 ------- 0 1.0 4.0 13 24
- 0.162741 1 6 tcp 1040 ------- 0 1.0 4.0 22 39
r 0.163741 1 6 tcp 1040 ------- 0 1.0 4.0 21 38
+ 0.163741 6 7 tcp 1040 ------- 0 1.0 4.0 21 38
r 0.164013 6 7 tcp 1040 ------- 0 1.0 4.0 11 22
+ 0.164013 7 4 tcp 1040 ------- 0 1.0 4.0 11 22
- 0.164013 7 4 tcp 1040 ------- 0 1.0 4.0 11 22
r 0.164573 1 6 tcp 1040 ------- 0 1.0 4.0 22 39
+ 0.164573 6 7 tcp 1040 ------- 0 1.0 4.0 22 39
r 0.165845 7 4 tcp 1040 ------- 0 1.0 4.0 11 22
+ 0.165845 4 7 ack 40 ------- 0 4.0 1.0 11 40
- 0.165845 4 7 ack 40 ------- 0 4.0 1.0 11 40
r 0.166877 4 7 ack 40 ------- 0 4.0 1.0 11 40
+ 0.166877 7 6 ack 40 ------- 0 4.0 1.0 11 40
- 0.166877 7 6 ack 40 ------- 0 4.0 1.0 11 40
- 0.170653 6 7 tcp 1040 ------- 0 1.0 4.0 14 25
r 0.172333 6 7 tcp 1040 ------- 0 1.0 4.0 12 23
+ 0.172333 7 4 tcp 1040 ------- 0 1.0 4.0 12 23
- 0.172333 7 4 tcp 1040 ------- 0 1.0 4.0 12 23
r 0.174165 7 4 tcp 1040 ------- 0 1.0 4.0 12 23
+ 0.174165 4 7 ack 40 ------- 0 4.0 1.0 12 41
- 0.174165 4 7 ack 40 ------- 0 4.0 1.0 12 41
r 0.175197 4 7 ack 40 ------- 0 4.0 1.0 12 41
+ 0.175197 7 6 ack 40 ------- 0 4.0 1.0 12 41
- 0.175197 7 6 ack 40 ------- 0 4.0 1.0 12 41
r 0.177197 7 6 ack 40 ------- 0 4.0 1.0 11 40
+ 0.177197 6 1 ack 40 ------- 0 4.0 1.0 11 40
- 0.177197 6 1 ack 40 ------- 0 4.0 1.0 11 40
r 0.178229 6 1 ack 40 ------- 0 4.0 1.0 11 40
+ 0.178229 1 6 tcp 1040 ------- 0 1.0 4.0 23 42
- 0.178229 1 6 tcp 1040 ------- 0 1.0 4.0 23 42
+ 0.178229 1 6 tcp 1040 ------- 0 1.0 4.0 24 43
- 0.178973 6 7 exp 1000 ------- 0 2.0 5.0 4 28
- 0.179061 1 6 tcp 1040 ------- 0 1.0 4.0 24 43
r 0.180061 1 6 tcp 1040 ------- 0 1.0 4.0 23 42
+ 0.180061 6 7 tcp 1040 ------- 0 1.0 4.0 23 42
r 0.180653 6 7 tcp 1040 ------- 0 1.0 4.0 13 24
+ 0.180653 7 4 tcp 1040 ------- 0 1.0 4.0 13 24
- 0.180653 7 4 tcp 1040 ------- 0 1.0 4.0 13 24
r 0.180893 1 6 tcp 1040 ------- 0 1.0 4.0 24 43
+ 0.180893 6 7 tcp 1040 ------- 0 1.0 4.0 24 43
r 0.182485 7 4 tcp 1040 ------- 0 1.0 4.0 13 24
+ 0.182485 4 7 ack 40 ------- 0 4.0 1.0 13 44
- 0.182485 4 7 ack 40 ------- 0 4.0 1.0 13 44
r 0.183517 4 7 ack 40 ------- 0 4.0 1.0 13 44
+ 0.183517 7 6 ack 40 ------- 0 4.0 1.0 13 44
- 0.183517 7 6 ack 40 ------- 0 4.0 1.0 13 44
r 0.185517 7 6 ack 40 ------- 0 4.0 1.0 12 41
+ 0.185517 6 1 ack 40 ------- 0 4.0 1.0 12 41
- 0.185517 6 1 ack 40 ------- 0 4.0 1.0 12 41
r 0.186549 6 1 ack 40 ------- 0 4.0 1.0 12 41
+ 0.186549 1 6 tcp 1040 ------- 0 1.0 4.0 25 45
- 0.186549 1 6 tcp 1040 ------- 0 1.0 4.0 25 45
+ 0.186549 1 6 tcp 1040 ------- 0 1.0 4.0 26 46
+ 0.186667 2 6 exp 1000 ------- 0 2.0 5.0 6 47
- 0.186667 2 6 exp 1000 ------- 0 2.0 5.0 6 47
- 0.186973 6 7 tcp 1040 ------- 0 1.0 4.0 15 29
- 0.187381 1 6 tcp 1040 ------- 0 1.0 4.0 26 46
r 0.188381 1 6 tcp 1040 ------- 0 1.0 4.0 25 45
+ 0.188381 6 7 tcp 1040 ------- 0 1.0 4.0 25 45
r 0.188467 2 6 exp 1000 ------- 0 2.0 5.0 6 47
+ 0.188467 6 7 exp 1000 ------- 0 2.0 5.0 6 47
r 0.188973 6 7 tcp 1040 ------- 0 1.0 4.0 14 25
+ 0.188973 7 4 tcp 1040 ------- 0 1.0 4.0 14 25
- 0.188973 7 4 tcp 1040 ------- 0 1.0 4.0 14 25
r 0.189213 1 6 tcp 1040 ------- 0 1.0 4.0 26 46
+ 0.189213 6 7 tcp 1040 ------- 0 1.0 4.0 26 46
r 0.190805 7 4 tcp 1040 ------- 0 1.0 4.0 14 25
+ 0.190805 4 7 ack 40 ------- 0 4.0 1.0 14 48
- 0.190805 4 7 ack 40 ------- 0 4.0 1.0 14 48
r 0.191837 4 7 ack 40 ------- 0 4.0 1.0 14 48
+ 0.191837 7 6 ack 40 ------- 0 4.0 1.0 14 48
- 0.191837 7 6 ack 40 ------- 0 4.0 1.0 14 48
r 0.193837 7 6 ack 40 ------- 0 4.0 1.0 13 44
+ 0.193837 6 1 ack 40 ------- 0 4.0 1.0 13 44
- 0.193837 6 1 ack 40 ------- 0 4.0 1.0 13 44
r 0.194869 6 1 ack 40 ------- 0 4.0 1.0 13 44
+ 0.194869 1 6 tcp 1040 ------- 0 1.0 4.0 27 49
- 0.194869 1 6 tcp 1040 ------- 0 1.0 4.0 27 49
+ 0.194869 1 6 tcp 1040 ------- 0 1.0 4.0 28 50
- 0.195293 6 7 tcp 1040 ------- 0 1.0 4.0 16 30
- 0.195701 1 6 tcp 1040 ------- 0 1.0 4.0 28 50
r 0.196701 1 6 tcp 1040 ------- 0 1.0 4.0 27 49
+ 0.196701 6 7 tcp 1040 ------- 0 1.0 4.0 27 49
r 0.196973 6 7 exp 1000 ------- 0 2.0 5.0 4 28
+ 0.196973 7 5 exp 1000 ------- 0 2.0 5.0 4 28
- 0.196973 7 5 exp 1000 ------- 0 2.0 5.0 4 28
r 0.197533 1 6 tcp 1040 ------- 0 1.0 4.0 28 50
+ 0.197533 6 7 tcp 1040 ------- 0 1.0 4.0 28 50
r 0.198773 7 5 exp 1000 ------- 0 2.0 5.0 4 28
r 0.202157 7 6 ack 40 ------- 0 4.0 1.0 14 48
+ 0.202157 6 1 ack 40 ------- 0 4.0 1.0 14 48
- 0.202157 6 1 ack 40 ------- 0 4.0 1.0 14 48
r 0.203189 6 1 ack 40 ------- 0 4.0 1.0 14 48
+ 0.203189 1 6 tcp 1040 ------- 0 1.0 4.0 29 51
- 0.203189 1 6 tcp 1040 ------- 0 1.0 4.0 29 51
+ 0.203189 1 6 tcp 1040 ------- 0 1.0 4.0 30 52
- 0.203613 6 7 tcp 1040 ------- 0 1.0 4.0 17 32
- 0.204021 1 6 tcp 1040 ------- 0 1.0 4.0 30 52
r 0.205021 1 6 tcp 1040 ------- 0 1.0 4.0 29 51
+ 0.205021 6 7 tcp 1040 ------- 0 1.0 4.0 29 51
r 0.205293 6 7 tcp 1040 ------- 0 1.0 4.0 15 29
+ 0.205293 7 4 tcp 1040 ------- 0 1.0 4.0 15 29
- 0.205293 7 4 tcp 1040 ------- 0 1.0 4.0 15 29
r 0.205853 1 6 tcp 1040 ------- 0 1.0 4.0 30 52
+ 0.205853 6 7 tcp 1040 ------- 0 1.0 4.0 30 52
r 0.207125 7 4 tcp 1040 ------- 0 1.0 4.0 15 29
+ 0.207125 4 7 ack 40 ------- 0 4.0 1.0 15 53
- 0.207125 4 7 ack 40 ------- 0 4.0 1.0 15 53
r 0.208157 4 7 ack 40 ------- 0 4.0 1.0 15 53
+ 0.208157 7 6 ack 40 ------- 0 4.0 1.0 15 53
- 0.208157 7 6 ack 40 ------- 0 4.0 1.0 15 53
- 0.211933 6 7 tcp 1040 ------- 0 1.0 4.0 18 33
+ 0.213333 2 6 exp 1000 ------- 0 2.0 5.0 7 54
- 0.213333 2 6 exp 1000 ------- 0 2.0 5.0 7 54
r 0.213613 6 7 tcp 1040 ------- 0 1.0 4.0 16 30
+ 0.213613 7 4 tcp 1040 ------- 0 1.0 4.0 16 30
- 0.213613 7 4 tcp 1040 ------- 0 1.0 4.0 16 30
r 0.215133 2 6 exp 1000 ------- 0 2.0 5.0 7 54
+ 0.215133 6 7 exp 1000 ------- 0 2.0 5.0 7 54
r 0.215445 7 4 tcp 1040 ------- 0 1.0 4.0 16 30
+ 0.215445 4 7 ack 40 ------- 0 4.0 1.0 16 55
- 0.215445 4 7 ack 40 ------- 0 4.0 1.0 16 55
r 0.216477 4 7 ack 40 ------- 0 4.0 1.0 16 55
+ 0.216477 7 6 ack 40 ------- 0 4.0 1.0 16 55
- 0.216477 7 6 ack 40 ------- 0 4.0 1.0 16 55
r 0.218477 7 6 ack 40 ------- 0 4.0 1.0 15 53
+ 0.218477 6 1 ack 40 ------- 0 4.0 1.0 15 53
- 0.218477 6 1 ack 40 ------- 0 4.0 1.0 15 53
r 0.219509 6 1 ack 40 ------- 0 4.0 1.0 15 53
+ 0.219509 1 6 tcp 1040 ------- 0 1.0 4.0 31 56
- 0.219509 1 6 tcp 1040 ------- 0 1.0 4.0 31 56
+ 0.219509 1 6 tcp 1040 ------- 0 1.0 4.0 32 57
- 0.220253 6 7 tcp 1040 ------- 0 1.0 4.0 19 35
- 0.220341 1 6 tcp 1040 ------- 0 1.0 4.0 32 57
r 0.221341 1 6 tcp 1040 ------- 0 1.0 4.0 31 56
+ 0.221341 6 7 tcp 1040 ------- 0 1.0 4.0 31 56
r 0.221933 6 7 tcp 1040 ------- 0 1.0 4.0 17 32
+ 0.221933 7 4 tcp 1040 ------- 0 1.0 4.0 17 32
- 0.221933 7 4 tcp 1040 ------- 0 1.0 4.0 17 32
r 0.222173 1 6 tcp 1040 ------- 0 1.0 4.0 32 57
+ 0.222173 6 7 tcp 1040 ------- 0 1.0 4.0 32 57
r 0.223765 7 4 tcp 1040 ------- 0 1.0 4.0 17 32
+ 0.223765 4 7 ack 40 ------- 0 4.0 1.0 17 58
- 0.223765 4 7 ack 40 ------- 0 4.0 1.0 17 58
r 0.224797 4 7 ack 40 ------- 0 4.0 1.0 17 58
+ 0.224797 7 6 ack 40 ------- 0 4.0 1.0 17 58
- 0.224797 7 6 ack 40 ------- 0 4.0 1.0 17 58
r 0.226797 7 6 ack 40 ------- 0 4.0 1.0 16 55
+ 0.226797 6 1 ack 40 ------- 0 4.0 1.0 16 55
- 0.226797 6 1 ack 40 ------- 0 4.0 1.0 16 55
r 0.227829 6 1 ack 40 ------- 0 4.0 1.0 16 55
+ 0.227829 1 6 tcp 1040 ------- 0 1.0 4.0 33 59
- 0.227829 1 6 tcp 1040 ------- 0 1.0 4.0 33 59
+ 0.227829 1 6 tcp 1040 ------- 0 1.0 4.0 34 60
- 0.228573 6 7 tcp 1040 ------- 0 1.0 4.0 20 36
- 0.228661 1 6 tcp 1040 ------- 0 1.0 4.0 34 60
r 0.229661 1 6 tcp 1040 ------- 0 1.0 4.0 33 59
+ 0.229661 6 7 tcp 1040 ------- 0 1.0 4.0 33 59
r 0.230253 6 7 tcp 1040 ------- 0 1.0 4.0 18 33
+ 0.230253 7 4 tcp 1040 ------- 0 1.0 4.0 18 33
- 0.230253 7 4 tcp 1040 ------- 0 1.0 4.0 18 33
r 0.230493 1 6 tcp 1040 ------- 0 1.0 4.0 34 60
+ 0.230493 6 7 tcp 1040 ------- 0 1.0 4.0 34 60
r 0.232085 7 4 tcp 1040 ------- 0 1.0 4.0 18 33
+ 0.232085 4 7 ack 40 ------- 0 4.0 1.0 18 61
- 0.232085 4 7 ack 40 ------- 0 4.0 1.0 18 61
r 0.233117 4 7 ack 40 ------- 0 4.0 1.0 18 61
+ 0.233117 7 6 ack 40 ------- 0 4.0 1.0 18 61
- 0.233117 7 6 ack 40 ------- 0 4.0 1.0 18 61
r 0.235117 7 6 ack 40 ------- 0 4.0 1.0 17 58
+ 0.235117 6 1 ack 40 ------- 0 4.0 1.0 17 58
- 0.235117 6 1 ack 40 ------- 0 4.0 1.0 17 58
r 0.236149 6 1 ack 40 ------- 0 4.0 1.0 17 58
+ 0.236149 1 6 tcp 1040 ------- 0 1.0 4.0 35 62
- 0.236149 1 6 tcp 1040 ------- 0 1.0 4.0 35 62
+ 0.236149 1 6 tcp 1040 ------- 0 1.0 4.0 36 63
- 0.236893 6 7 exp 1000 ------- 0 2.0 5.0 5 37
- 0.236981 1 6 tcp 1040 ------- 0 1.0 4.0 36 63
r 0.237981 1 6 tcp 1040 ------- 0 1.0 4.0 35 62
+ 0.237981 6 7 tcp 1040 ------- 0 1.0 4.0 35 62
r 0.238573 6 7 tcp 1040 ------- 0 1.0 4.0 19 35
+ 0.238573 7 4 tcp 1040 ------- 0 1.0 4.0 19 35
- 0.238573 7 4 tcp 1040 ------- 0 1.0 4.0 19 35
r 0.238813 1 6 tcp 1040 ------- 0 1.0 4.0 36 63
+ 0.238813 6 7 tcp 1040 ------- 0 1.0 4.0 36 63
+ 0.24 2 6 exp 1000 ------- 0 2.0 5.0 8 64
- 0.24 2 6 exp 1000 ------- 0 2.0 5.0 8 64
r 0.240405 7 4 tcp 1040 ------- 0 1.0 4.0 19 35
+ 0.240405 4 7 ack 40 ------- 0 4.0 1.0 19 65
- 0.240405 4 7 ack 40 ------- 0 4.0 1.0 19 65
r 0.241437 4 7 ack 40 ------- 0 4.0 1.0 19 65
+ 0.241437 7 6 ack 40 ------- 0 4.0 1.0 19 65
- 0.241437 7 6 ack 40 ------- 0 4.0 1.0 19 65
r 0.2418 2 6 exp 1000 ------- 0 2.0 5.0 8 64
+ 0.2418 6 7 exp 1000 ------- 0 2.0 5.0 8 64
r 0.243437 7 6 ack 40 ------- 0 4.0 1.0 18 61
+ 0.243437 6 1 ack 40 ------- 0 4.0 1.0 18 61
- 0.243437 6 1 ack 40 ------- 0 4.0 1.0 18 61
r 0.244469 6 1 ack 40 ------- 0 4.0 1.0 18 61
+ 0.244469 1 6 tcp 1040 ------- 0 1.0 4.0 37 66
- 0.244469 1 6 tcp 1040 ------- 0 1.0 4.0 37 66
+ 0.244469 1 6 tcp 1040 ------- 0 1.0 4.0 38 67
- 0.244893 6 7 tcp 1040 ------- 0 1.0 4.0 21 38
- 0.245301 1 6 tcp 1040 ------- 0 1.0 4.0 38 67
r 0.246301 1 6 tcp 1040 ------- 0 1.0 4.0 37 66
+ 0.246301 6 7 tcp 1040 ------- 0 1.0 4.0 37 66
r 0.246893 6 7 tcp 1040 ------- 0 1.0 4.0 20 36
+ 0.246893 7 4 tcp 1040 ------- 0 1.0 4.0 20 36
- 0.246893 7 4 tcp 1040 ------- 0 1.0 4.0 20 36
r 0.247133 1 6 tcp 1040 ------- 0 1.0 4.0 38 67
+ 0.247133 6 7 tcp 1040 ------- 0 1.0 4.0 38 67
r 0.248725 7 4 tcp 1040 ------- 0 1.0 4.0 20 36
+ 0.248725 4 7 ack 40 ------- 0 4.0 1.0 20 68
- 0.248725 4 7 ack 40 ------- 0 4.0 1.0 20 68
r 0.249757 4 7 ack 40 ------- 0 4.0 1.0 20 68
+ 0.249757 7 6 ack 40 ------- 0 4.0 1.0 20 68
- 0.249757 7 6 ack 40 ------- 0 4.0 1.0 20 68
r 0.251757 7 6 ack 40 ------- 0 4.0 1.0 19 65
+ 0.251757 6 1 ack 40 ------- 0 4.0 1.0 19 65
- 0.251757 6 1 ack 40 ------- 0 4.0 1.0 19 65
r 0.252789 6 1 ack 40 ------- 0 4.0 1.0 19 65
+ 0.252789 1 6 tcp 1040 ------- 0 1.0 4.0 39 69
- 0.252789 1 6 tcp 1040 ------- 0 1.0 4.0 39 69
- 0.253213 6 7 tcp 1040 ------- 0 1.0 4.0 22 39
r 0.254621 1 6 tcp 1040 ------- 0 1.0 4.0 39 69
+ 0.254621 6 7 tcp 1040 ------- 0 1.0 4.0 39 69
r 0.254893 6 7 exp 1000 ------- 0 2.0 5.0 5 37
+ 0.254893 7 5 exp 1000 ------- 0 2.0 5.0 5 37
- 0.254893 7 5 exp 1000 ------- 0 2.0 5.0 5 37
r 0.256693 7 5 exp 1000 ------- 0 2.0 5.0 5 37
r 0.260077 7 6 ack 40 ------- 0 4.0 1.0 20 68
+ 0.260077 6 1 ack 40 ------- 0 4.0 1.0 20 68
- 0.260077 6 1 ack 40 ------- 0 4.0 1.0 20 68
r 0.261109 6 1 ack 40 ------- 0 4.0 1.0 20 68
+ 0.261109 1 6 tcp 1040 ------- 0 1.0 4.0 40 70
- 0.261109 1 6 tcp 1040 ------- 0 1.0 4.0 40 70
- 0.261533 6 7 tcp 1040 ------- 0 1.0 4.0 23 42
r 0.262941 1 6 tcp 1040 ------- 0 1.0 4.0 40 70
+ 0.262941 6 7 tcp 1040 ------- 0 1.0 4.0 40 70
r 0.263213 6 7 tcp 1040 ------- 0 1.0 4.0 21 38
+ 0.263213 7 4 tcp 1040 ------- 0 1.0 4.0 21 38
- 0.263213 7 4 tcp 1040 ------- 0 1.0 4.0 21 38
r 0.265045 7 4 tcp 1040 ------- 0 1.0 4.0 21 38
+ 0.265045 4 7 ack 40 ------- 0 4.0 1.0 21 71
- 0.265045 4 7 ack 40 ------- 0 4.0 1.0 21 71
r 0.266077 4 7 ack 40 ------- 0 4.0 1.0 21 71
+ 0.266077 7 6 ack 40 ------- 0 4.0 1.0 21 71
- 0.266077 7 6 ack 40 ------- 0 4.0 1.0 21 71
+ 0.266667 2 6 exp 1000 ------- 0 2.0 5.0 9 72
- 0.266667 2 6 exp 1000 ------- 0 2.0 5.0 9 72
r 0.268467 2 6 exp 1000 ------- 0 2.0 5.0 9 72
+ 0.268467 6 7 exp 1000 ------- 0 2.0 5.0 9 72
- 0.269853 6 7 tcp 1040 ------- 0 1.0 4.0 24 43
r 0.271533 6 7 tcp 1040 ------- 0 1.0 4.0 22 39
+ 0.271533 7 4 tcp 1040 ------- 0 1.0 4.0 22 39
- 0.271533 7 4 tcp 1040 ------- 0 1.0 4.0 22 39
r 0.273365 7 4 tcp 1040 ------- 0 1.0 4.0 22 39
+ 0.273365 4 7 ack 40 ------- 0 4.0 1.0 22 73
- 0.273365 4 7 ack 40 ------- 0 4.0 1.0 22 73
r 0.274397 4 7 ack 40 ------- 0 4.0 1.0 22 73
+ 0.274397 7 6 ack 40 ------- 0 4.0 1.0 22 73
- 0.274397 7 6 ack 40 ------- 0 4.0 1.0 22 73
r 0.276397 7 6 ack 40 ------- 0 4.0 1.0 21 71
+ 0.276397 6 1 ack 40 ------- 0 4.0 1.0 21 71
- 0.276397 6 1 ack 40 ------- 0 4.0 1.0 21 71
r 0.277429 6 1 ack 40 ------- 0 4.0 1.0 21 71
+ 0.277429 1 6 tcp 1040 ------- 0 1.0 4.0 41 74
- 0.277429 1 6 tcp 1040 ------- 0 1.0 4.0 41 74
- 0.278173 6 7 tcp 1040 ------- 0 1.0 4.0 25 45
r 0.279261 1 6 tcp 1040 ------- 0 1.0 4.0 41 74
+ 0.279261 6 7 tcp 1040 ------- 0 1.0 4.0 41 74
r 0.279853 6 7 tcp 1040 ------- 0 1.0 4.0 23 42
+ 0.279853 7 4 tcp 1040 ------- 0 1.0 4.0 23 42
- 0.279853 7 4 tcp 1040 ------- 0 1.0 4.0 23 42
r 0.281685 7 4 tcp 1040 ------- 0 1.0 4.0 23 42
+ 0.281685 4 7 ack 40 ------- 0 4.0 1.0 23 75
- 0.281685 4 7 ack 40 ------- 0 4.0 1.0 23 75
r 0.282717 4 7 ack 40 ------- 0 4.0 1.0 23 75
+ 0.282717 7 6 ack 40 ------- 0 4.0 1.0 23 75
- 0.282717 7 6 ack 40 ------- 0 4.0 1.0 23 75
r 0.284717 7 6 ack 40 ------- 0 4.0 1.0 22 73
+ 0.284717 6 1 ack 40 ------- 0 4.0 1.0 22 73
- 0.284717 6 1 ack 40 ------- 0 4.0 1.0 22 73
r 0.285749 6 1 ack 40 ------- 0 4.0 1.0 22 73
+ 0.285749 1 6 tcp 1040 ------- 0 1.0 4.0 42 76
- 0.285749 1 6 tcp 1040 ------- 0 1.0 4.0 42 76
- 0.286493 6 7 exp 1000 ------- 0 2.0 5.0 6 47
r 0.287581 1 6 tcp 1040 ------- 0 1.0 4.0 42 76
+ 0.287581 6 7 tcp 1040 ------- 0 1.0 4.0 42 76
r 0.288173 6 7 tcp 1040 ------- 0 1.0 4.0 24 43
+ 0.288173 7 4 tcp 1040 ------- 0 1.0 4.0 24 43
- 0.288173 7 4 tcp 1040 ------- 0 1.0 4.0 24 43
r 0.290005 7 4 tcp 1040 ------- 0 1.0 4.0 24 43
+ 0.290005 4 7 ack 40 ------- 0 4.0 1.0 24 77
- 0.290005 4 7 ack 40 ------- 0 4.0 1.0 24 77
r 0.291037 4 7 ack 40 ------- 0 4.0 1.0 24 77
+ 0.291037 7 6 ack 40 ------- 0 4.0 1.0 24 77
- 0.291037 7 6 ack 40 ------- 0 4.0 1.0 24 77
r 0.293037 7 6 ack 40 ------- 0 4.0 1.0 23 75
+ 0.293037 6 1 ack 40 ------- 0 4.0 1.0 23 75
- 0.293037 6 1 ack 40 ------- 0 4.0 1.0 23 75
+ 0.293333 2 6 exp 1000 ------- 0 2.0 5.0 10 78
- 0.293333 2 6 exp 1000 ------- 0 2.0 5.0 10 78
r 0.294069 6 1 ack 40 ------- 0 4.0 1.0 23 75
+ 0.294069 1 6 tcp 1040 ------- 0 1.0 4.0 43 79
- 0.294069 1 6 tcp 1040 ------- 0 1.0 4.0 43 79
- 0.294493 6 7 tcp 1040 ------- 0 1.0 4.0 26 46
r 0.295133 2 6 exp 1000 ------- 0 2.0 5.0 10 78
+ 0.295133 6 7 exp 1000 ------- 0 2.0 5.0 10 78
r 0.295901 1 6 tcp 1040 ------- 0 1.0 4.0 43 79
+ 0.295901 6 7 tcp 1040 ------- 0 1.0 4.0 43 79
r 0.296493 6 7 tcp 1040 ------- 0 1.0 4.0 25 45
+ 0.296493 7 4 tcp 1040 ------- 0 1.0 4.0 25 45
- 0.296493 7 4 tcp 1040 ------- 0 1.0 4.0 25 45
r 0.298325 7 4 tcp 1040 ------- 0 1.0 4.0 25 45
+ 0.298325 4 7 ack 40 ------- 0 4.0 1.0 25 80
- 0.298325 4 7 ack 40 ------- 0 4.0 1.0 25 80
r 0.299357 4 7 ack 40 ------- 0 4.0 1.0 25 80
+ 0.299357 7 6 ack 40 ------- 0 4.0 1.0 25 80
- 0.299357 7 6 ack 40 ------- 0 4.0 1.0 25 80
r 0.301357 7 6 ack 40 ------- 0 4.0 1.0 24 77
+ 0.301357 6 1 ack 40 ------- 0 4.0 1.0 24 77
- 0.301357 6 1 ack 40 ------- 0 4.0 1.0 24 77
r 0.302389 6 1 ack 40 ------- 0 4.0 1.0 24 77
+ 0.302389 1 6 tcp 1040 ------- 0 1.0 4.0 44 81
- 0.302389 1 6 tcp 1040 ------- 0 1.0 4.0 44 81
- 0.302813 6 7 tcp 1040 ------- 0 1.0 4.0 27 49
r 0.304221 1 6 tcp 1040 ------- 0 1.0 4.0 44 81
+ 0.304221 6 7 tcp 1040 ------- 0 1.0 4.0 44 81
r 0.304493 6 7 exp 1000 ------- 0 2.0 5.0 6 47
+ 0.304493 7 5 exp 1000 ------- 0 2.0 5.0 6 47
- 0.304493 7 5 exp 1000 ------- 0 2.0 5.0 6 47
r 0.306293 7 5 exp 1000 ------- 0 2.0 5.0 6 47
r 0.309677 7 6 ack 40 ------- 0 4.0 1.0 25 80
+ 0.309677 6 1 ack 40 ------- 0 4.0 1.0 25 80
- 0.309677 6 1 ack 40 ------- 0 4.0 1.0 25 80
r 0.310709 6 1 ack 40 ------- 0 4.0 1.0 25 80
+ 0.310709 1 6 tcp 1040 ------- 0 1.0 4.0 45 82
- 0.310709 1 6 tcp 1040 ------- 0 1.0 4.0 45 82
- 0.311133 6 7 tcp 1040 ------- 0 1.0 4.0 28 50
r 0.312541 1 6 tcp 1040 ------- 0 1.0 4.0 45 82
+ 0.312541 6 7 tcp 1040 ------- 0 1.0 4.0 45 82
r 0.312813 6 7 tcp 1040 ------- 0 1.0 4.0 26 46
+ 0.312813 7 4 tcp 1040 ------- 0 1.0 4.0 26 46
- 0.312813 7 4 tcp 1040 ------- 0 1.0 4.0 26 46
r 0.314645 7 4 tcp 1040 ------- 0 1.0 4.0 26 46
+ 0.314645 4 7 ack 40 ------- 0 4.0 1.0 26 83
- 0.314645 4 7 ack 40 ------- 0 4.0 1.0 26 83
r 0.315677 4 7 ack 40 ------- 0 4.0 1.0 26 83
+ 0.315677 7 6 ack 40 ------- 0 4.0 1.0 26 83
- 0.315677 7 6 ack 40 ------- 0 4.0 1.0 26 83
- 0.319453 6 7 tcp 1040 ------- 0 1.0 4.0 29 51
+ 0.32 2 6 exp 1000 ------- 0 2.0 5.0 11 84
- 0.32 2 6 exp 1000 ------- 0 2.0 5.0 11 84
r 0.321133 6 7 tcp 1040 ------- 0 1.0 4.0 27 49
+ 0.321133 7 4 tcp 1040 ------- 0 1.0 4.0 27 49