+ 0 1 6 tcp 40 ------- 0 1.0 4.0 0 0
- 0 1 6 tcp 40 ------- 0 1.0 4.0 0 0
r 0.001032 1 6 tcp 40 ------- 0 1.0 4.0 0 0
+ 0.001032 6 7 tcp 40 ------- 0 1.0 4.0 0 0
- 0.001032 6 7 tcp 40 ------- 0 1.0 4.0 0 0
r 0.011352 6 7 tcp 40 ------- 0 1.0 4.0 0 0
+ 0.011352 7 4 tcp 40 ------- 0 1.0 4.0 0 0
- 0.011352 7 4 tcp 40 ------- 0 1.0 4.0 0 0
r 0.012384 7 4 tcp 40 ------- 0 1.0 4.0 0 0
+ 0.012384 4 7 ack 40 ------- 0 4.0 1.0 0 1
- 0.012384 4 7 ack 40 ------- 0 4.0 1.0 0 1
r 0.013416 4 7 ack 40 ------- 0 4.0 1.0 0 1
+ 0.013416 7 6 ack 40 ------- 0 4.0 1.0 0 1
- 0.013416 7 6 ack 40 ------- 0 4.0 1.0 0 1
+ 0.02 2 6 exp 1000 ------- 0 2.0 5.0 0 2
- 0.02 2 6 exp 1000 ------- 0 2.0 5.0 0 2
r 0.0218 2 6 exp 1000 ------- 0 2.0 5.0 0 2
+ 0.0218 6 7 exp 1000 ------- 0 2.0 5.0 0 2
- 0.0218 6 7 exp 1000 ------- 0 2.0 5.0 0 2
r 0.023736 7 6 ack 40 ------- 0 4.0 1.0 0 1
+ 0.023736 6 1 ack 40 ------- 0 4.0 1.0 0 1
- 0.023736 6 1 ack 40 ------- 0 4.0 1.0 0 1
r 0.024768 6 1 ack 40 ------- 0 4.0 1.0 0 1
+ 0.024768 1 6 tcp 1040 ------- 0 1.0 4.0 1 3
- 0.024768 1 6 tcp 1040 ------- 0 1.0 4.0 1 3
+ 0.024768 1 6 tcp 1040 ------- 0 1.0 4.0 2 4
- 0.0256 1 6 tcp 1040 ------- 0 1.0 4.0 2 4
r 0.0266 1 6 tcp 1040 ------- 0 1.0 4.0 1 3
+ 0.0266 6 7 tcp 1040 ------- 0 1.0 4.0 1 3
r 0.027432 1 6 tcp 1040 ------- 0 1.0 4.0 2 4
+ 0.027432 6 7 tcp 1040 ------- 0 1.0 4.0 2 4
- 0.0298 6 7 tcp 1040 ------- 0 1.0 4.0 1 3
- 0.03812 6 7 tcp 1040 ------- 0 1.0 4.0 2 4
r 0.0398 6 7 exp 1000 ------- 0 2.0 5.0 0 2
+ 0.0398 7 5 exp 1000 ------- 0 2.0 5.0 0 2
- 0.0398 7 5 exp 1000 ------- 0 2.0 5.0 0 2
+ 0.04 2 6 exp 1000 ------- 0 2.0 5.0 1 5
- 0.04 2 6 exp 1000 ------- 0 2.0 5.0 1 5
r 0.0416 7 5 exp 1000 ------- 0 2.0 5.0 0 2
r 0.0418 2 6 exp 1000 ------- 0 2.0 5.0 1 5
+ 0.0418 6 7 exp 1000 ------- 0 2.0 5.0 1 5
- 0.04644 6 7 exp 1000 ------- 0 2.0 5.0 1 5
r 0.04812 6 7 tcp 1040 ------- 0 1.0 4.0 1 3
+ 0.04812 7 4 tcp 1040 ------- 0 1.0 4.0 1 3
- 0.04812 7 4 tcp 1040 ------- 0 1.0 4.0 1 3
r 0.049952 7 4 tcp 1040 ------- 0 1.0 4.0 1 3
+ 0.049952 4 7 ack 40 ------- 0 4.0 1.0 1 6
- 0.049952 4 7 ack 40 ------- 0 4.0 1.0 1 6
r 0.050984 4 7 ack 40 ------- 0 4.0 1.0 1 6
+ 0.050984 7 6 ack 40 ------- 0 4.0 1.0 1 6
- 0.050984 7 6 ack 40 ------- 0 4.0 1.0 1 6
r 0.05644 6 7 tcp 1040 ------- 0 1.0 4.0 2 4
+ 0.05644 7 4 tcp 1040 ------- 0 1.0 4.0 2 4
- 0.05644 7 4 tcp 1040 ------- 0 1.0 4.0 2 4
r 0.058272 7 4 tcp 1040 ------- 0 1.0 4.0 2 4
+ 0.058272 4 7 ack 40 ------- 0 4.0 1.0 2 7
- 0.058272 4 7 ack 40 ------- 0 4.0 1.0 2 7
r 0.059304 4 7 ack 40 ------- 0 4.0 1.0 2 7
+ 0.059304 7 6 ack 40 ------- 0 4.0 1.0 2 7
- 0.059304 7 6 ack 40 ------- 0 4.0 1.0 2 7
+ 0.06 2 6 exp 1000 ------- 0 2.0 5.0 2 8
- 0.06 2 6 exp 1000 ------- 0 2.0 5.0 2 8
r 0.061304 7 6 ack 40 ------- 0 4.0 1.0 1 6
+ 0.061304 6 1 ack 40 ------- 0 4.0 1.0 1 6
- 0.061304 6 1 ack 40 ------- 0 4.0 1.0 1 6
r 0.0618 2 6 exp 1000 ------- 0 2.0 5.0 2 8
+ 0.0618 6 7 exp 1000 ------- 0 2.0 5.0 2 8
- 0.0618 6 7 exp 1000 ------- 0 2.0 5.0 2 8
r 0.062336 6 1 ack 40 ------- 0 4.0 1.0 1 6
+ 0.062336 1 6 tcp 1040 ------- 0 1.0 4.0 3 9
- 0.062336 1 6 tcp 1040 ------- 0 1.0 4.0 3 9
+ 0.062336 1 6 tcp 1040 ------- 0 1.0 4.0 4 10
- 0.063168 1 6 tcp 1040 ------- 0 1.0 4.0 4 10
r 0.064168 1 6 tcp 1040 ------- 0 1.0 4.0 3 9
+ 0.064168 6 7 tcp 1040 ------- 0 1.0 4.0 3 9
r 0.06444 6 7 exp 1000 ------- 0 2.0 5.0 1 5
+ 0.06444 7 5 exp 1000 ------- 0 2.0 5.0 1 5
- 0.06444 7 5 exp 1000 ------- 0 2.0 5.0 1 5
r 0.065 1 6 tcp 1040 ------- 0 1.0 4.0 4 10
+ 0.065 6 7 tcp 1040 ------- 0 1.0 4.0 4 10
r 0.06624 7 5 exp 1000 ------- 0 2.0 5.0 1 5
r 0.069624 7 6 ack 40 ------- 0 4.0 1.0 2 7
+ 0.069624 6 1 ack 40 ------- 0 4.0 1.0 2 7
- 0.069624 6 1 ack 40 ------- 0 4.0 1.0 2 7
- 0.0698 6 7 tcp 1040 ------- 0 1.0 4.0 3 9
r 0.070656 6 1 ack 40 ------- 0 4.0 1.0 2 7
+ 0.070656 1 6 tcp 1040 ------- 0 1.0 4.0 5 11
- 0.070656 1 6 tcp 1040 ------- 0 1.0 4.0 5 11
+ 0.070656 1 6 tcp 1040 ------- 0 1.0 4.0 6 12
- 0.071488 1 6 tcp 1040 ------- 0 1.0 4.0 6 12
r 0.072488 1 6 tcp 1040 ------- 0 1.0 4.0 5 11
+ 0.072488 6 7 tcp 1040 ------- 0 1.0 4.0 5 11
r 0.07332 1 6 tcp 1040 ------- 0 1.0 4.0 6 12
+ 0.07332 6 7 tcp 1040 ------- 0 1.0 4.0 6 12
- 0.07812 6 7 tcp 1040 ------- 0 1.0 4.0 4 10
r 0.0798 6 7 exp 1000 ------- 0 2.0 5.0 2 8
+ 0.0798 7 5 exp 1000 ------- 0 2.0 5.0 2 8
- 0.0798 7 5 exp 1000 ------- 0 2.0 5.0 2 8
+ 0.08 2 6 exp 1000 ------- 0 2.0 5.0 3 13
- 0.08 2 6 exp 1000 ------- 0 2.0 5.0 3 13
r 0.0816 7 5 exp 1000 ------- 0 2.0 5.0 2 8
r 0.0818 2 6 exp 1000 ------- 0 2.0 5.0 3 13
+ 0.0818 6 7 exp 1000 ------- 0 2.0 5.0 3 13
- 0.08644 6 7 tcp 1040 ------- 0 1.0 4.0 5 11
r 0.08812 6 7 tcp 1040 ------- 0 1.0 4.0 3 9
+ 0.08812 7 4 tcp 1040 ------- 0 1.0 4.0 3 9
- 0.08812 7 4 tcp 1040 ------- 0 1.0 4.0 3 9
r 0.089952 7 4 tcp 1040 ------- 0 1.0 4.0 3 9
+ 0.089952 4 7 ack 40 ------- 0 4.0 1.0 3 14
- 0.089952 4 7 ack 40 ------- 0 4.0 1.0 3 14
r 0.090984 4 7 ack 40 ------- 0 4.0 1.0 3 14
+ 0.090984 7 6 ack 40 ------- 0 4.0 1.0 3 14
- 0.090984 7 6 ack 40 ------- 0 4.0 1.0 3 14
- 0.09476 6 7 tcp 1040 ------- 0 1.0 4.0 6 12
r 0.09644 6 7 tcp 1040 ------- 0 1.0 4.0 4 10
+ 0.09644 7 4 tcp 1040 ------- 0 1.0 4.0 4 10
- 0.09644 7 4 tcp 1040 ------- 0 1.0 4.0 4 10
r 0.098272 7 4 tcp 1040 ------- 0 1.0 4.0 4 10
+ 0.098272 4 7 ack 40 ------- 0 4.0 1.0 4 15
- 0.098272 4 7 ack 40 ------- 0 4.0 1.0 4 15
r 0.099304 4 7 ack 40 ------- 0 4.0 1.0 4 15
+ 0.099304 7 6 ack 40 ------- 0 4.0 1.0 4 15
- 0.099304 7 6 ack 40 ------- 0 4.0 1.0 4 15
+ 0.1 2 6 exp 1000 ------- 0 2.0 5.0 4 16
- 0.1 2 6 exp 1000 ------- 0 2.0 5.0 4 16
r 0.101304 7 6 ack 40 ------- 0 4.0 1.0 3 14
+ 0.101304 6 1 ack 40 ------- 0 4.0 1.0 3 14
- 0.101304 6 1 ack 40 ------- 0 4.0 1.0 3 14
r 0.1018 2 6 exp 1000 ------- 0 2.0 5.0 4 16
+ 0.1018 6 7 exp 1000 ------- 0 2.0 5.0 4 16
r 0.102336 6 1 ack 40 ------- 0 4.0 1.0 3 14
+ 0.102336 1 6 tcp 1040 ------- 0 1.0 4.0 7 17
- 0.102336 1 6 tcp 1040 ------- 0 1.0 4.0 7 17
+ 0.102336 1 6 tcp 1040 ------- 0 1.0 4.0 8 18
- 0.10308 6 7 exp 1000 ------- 0 2.0 5.0 3 13
- 0.103168 1 6 tcp 1040 ------- 0 1.0 4.0 8 18
r 0.104168 1 6 tcp 1040 ------- 0 1.0 4.0 7 17
+ 0.104168 6 7 tcp 1040 ------- 0 1.0 4.0 7 17
r 0.10476 6 7 tcp 1040 ------- 0 1.0 4.0 5 11
+ 0.10476 7 4 tcp 1040 ------- 0 1.0 4.0 5 11
- 0.10476 7 4 tcp 1040 ------- 0 1.0 4.0 5 11
r 0.105 1 6 tcp 1040 ------- 0 1.0 4.0 8 18
+ 0.105 6 7 tcp 1040 ------- 0 1.0 4.0 8 18
r 0.106592 7 4 tcp 1040 ------- 0 1.0 4.0 5 11
+ 0.106592 4 7 ack 40 ------- 0 4.0 1.0 5 19
- 0.106592 4 7 ack 40 ------- 0 4.0 1.0 5 19
r 0.107624 4 7 ack 40 ------- 0 4.0 1.0 5 19
+ 0.107624 7 6 ack 40 ------- 0 4.0 1.0 5 19
- 0.107624 7 6 ack 40 ------- 0 4.0 1.0 5 19
r 0.109624 7 6 ack 40 ------- 0 4.0 1.0 4 15
+ 0.109624 6 1 ack 40 ------- 0 4.0 1.0 4 15
- 0.109624 6 1 ack 40 ------- 0 4.0 1.0 4 15
r 0.110656 6 1 ack 40 ------- 0 4.0 1.0 4 15
+ 0.110656 1 6 tcp 1040 ------- 0 1.0 4.0 9 20
- 0.110656 1 6 tcp 1040 ------- 0 1.0 4.0 9 20
+ 0.110656 1 6 tcp 1040 ------- 0 1.0 4.0 10 21
- 0.11108 6 7 exp 1000 ------- 0 2.0 5.0 4 16
- 0.111488 1 6 tcp 1040 ------- 0 1.0 4.0 10 21
r 0.112488 1 6 tcp 1040 ------- 0 1.0 4.0 9 20
+ 0.112488 6 7 tcp 1040 ------- 0 1.0 4.0 9 20
r 0.11308 6 7 tcp 1040 ------- 0 1.0 4.0 6 12
+ 0.11308 7 4 tcp 1040 ------- 0 1.0 4.0 6 12
- 0.11308 7 4 tcp 1040 ------- 0 1.0 4.0 6 12
r 0.11332 1 6 tcp 1040 ------- 0 1.0 4.0 10 21
+ 0.11332 6 7 tcp 1040 ------- 0 1.0 4.0 10 21
r 0.114912 7 4 tcp 1040 ------- 0 1.0 4.0 6 12
+ 0.114912 4 7 ack 40 ------- 0 4.0 1.0 6 22
- 0.114912 4 7 ack 40 ------- 0 4.0 1.0 6 22
r 0.115944 4 7 ack 40 ------- 0 4.0 1.0 6 22
+ 0.115944 7 6 ack 40 ------- 0 4.0 1.0 6 22
- 0.115944 7 6 ack 40 ------- 0 4.0 1.0 6 22
r 0.117944 7 6 ack 40 ------- 0 4.0 1.0 5 19
+ 0.117944 6 1 ack 40 ------- 0 4.0 1.0 5 19
- 0.117944 6 1 ack 40 ------- 0 4.0 1.0 5 19
r 0.118976 6 1 ack 40 ------- 0 4.0 1.0 5 19
+ 0.118976 1 6 tcp 1040 ------- 0 1.0 4.0 11 23
- 0.118976 1 6 tcp 1040 ------- 0 1.0 4.0 11 23
+ 0.118976 1 6 tcp 1040 ------- 0 1.0 4.0 12 24
- 0.11908 6 7 tcp 1040 ------- 0 1.0 4.0 7 17
- 0.119808 1 6 tcp 1040 ------- 0 1.0 4.0 12 24
+ 0.12 2 6 exp 1000 ------- 0 2.0 5.0 5 25
- 0.12 2 6 exp 1000 ------- 0 2.0 5.0 5 25
r 0.120808 1 6 tcp 1040 ------- 0 1.0 4.0 11 23
+ 0.120808 6 7 tcp 1040 ------- 0 1.0 4.0 11 23
r 0.12108 6 7 exp 1000 ------- 0 2.0 5.0 3 13
+ 0.12108 7 5 exp 1000 ------- 0 2.0 5.0 3 13
- 0.12108 7 5 exp 1000 ------- 0 2.0 5.0 3 13
r 0.12164 1 6 tcp 1040 ------- 0 1.0 4.0 12 24
+ 0.12164 6 7 tcp 1040 ------- 0 1.0 4.0 12 24
r 0.1218 2 6 exp 1000 ------- 0 2.0 5.0 5 25
+ 0.1218 6 7 exp 1000 ------- 0 2.0 5.0 5 25
r 0.12288 7 5 exp 1000 ------- 0 2.0 5.0 3 13
r 0.126264 7 6 ack 40 ------- 0 4.0 1.0 6 22
+ 0.126264 6 1 ack 40 ------- 0 4.0 1.0 6 22
- 0.126264 6 1 ack 40 ------- 0 4.0 1.0 6 22
r 0.127296 6 1 ack 40 ------- 0 4.0 1.0 6 22
+ 0.127296 1 6 tcp 1040 ------- 0 1.0 4.0 13 26
- 0.127296 1 6 tcp 1040 ------- 0 1.0 4.0 13 26
+ 0.127296 1 6 tcp 1040 ------- 0 1.0 4.0 14 27
- 0.1274 6 7 tcp 1040 ------- 0 1.0 4.0 8 18
- 0.128128 1 6 tcp 1040 ------- 0 1.0 4.0 14 27
r 0.12908 6 7 exp 1000 ------- 0 2.0 5.0 4 16
+ 0.12908 7 5 exp 1000 ------- 0 2.0 5.0 4 16
- 0.12908 7 5 exp 1000 ------- 0 2.0 5.0 4 16
r 0.129128 1 6 tcp 1040 ------- 0 1.0 4.0 13 26
+ 0.129128 6 7 tcp 1040 ------- 0 1.0 4.0 13 26
r 0.12996 1 6 tcp 1040 ------- 0 1.0 4.0 14 27
+ 0.12996 6 7 tcp 1040 ------- 0 1.0 4.0 14 27
r 0.13088 7 5 exp 1000 ------- 0 2.0 5.0 4 16
- 0.13572 6 7 tcp 1040 ------- 0 1.0 4.0 9 20
r 0.1374 6 7 tcp 1040 ------- 0 1.0 4.0 7 17
+ 0.1374 7 4 tcp 1040 ------- 0 1.0 4.0 7 17
- 0.1374 7 4 tcp 1040 ------- 0 1.0 4.0 7 17
r 0.139232 7 4 tcp 1040 ------- 0 1.0 4.0 7 17
+ 0.139232 4 7 ack 40 ------- 0 4.0 1.0 7 28
- 0.139232 4 7 ack 40 ------- 0 4.0 1.0 7 28
+ 0.14 2 6 exp 1000 ------- 0 2.0 5.0 6 29
- 0.14 2 6 exp 1000 ------- 0 2.0 5.0 6 29
r 0.140264 4 7 ack 40 ------- 0 4.0 1.0 7 28
+ 0.140264 7 6 ack 40 ------- 0 4.0 1.0 7 28
- 0.140264 7 6 ack 40 ------- 0 4.0 1.0 7 28
r 0.1418 2 6 exp 1000 ------- 0 2.0 5.0 6 29
+ 0.1418 6 7 exp 1000 ------- 0 2.0 5.0 6 29
- 0.14404 6 7 tcp 1040 ------- 0 1.0 4.0 10 21
r 0.14572 6 7 tcp 1040 ------- 0 1.0 4.0 8 18
+ 0.14572 7 4 tcp 1040 ------- 0 1.0 4.0 8 18
- 0.14572 7 4 tcp 1040 ------- 0 1.0 4.0 8 18
r 0.147552 7 4 tcp 1040 ------- 0 1.0 4.0 8 18
+ 0.147552 4 7 ack 40 ------- 0 4.0 1.0 8 30
- 0.147552 4 7 ack 40 ------- 0 4.0 1.0 8 30
r 0.148584 4 7 ack 40 ------- 0 4.0 1.0 8 30
+ 0.148584 7 6 ack 40 ------- 0 4.0 1.0 8 30
- 0.148584 7 6 ack 40 ------- 0 4.0 1.0 8 30
r 0.150584 7 6 ack 40 ------- 0 4.0 1.0 7 28
+ 0.150584 6 1 ack 40 ------- 0 4.0 1.0 7 28
- 0.150584 6 1 ack 40 ------- 0 4.0 1.0 7 28
r 0.151616 6 1 ack 40 ------- 0 4.0 1.0 7 28
+ 0.151616 1 6 tcp 1040 ------- 0 1.0 4.0 15 31
- 0.151616 1 6 tcp 1040 ------- 0 1.0 4.0 15 31
+ 0.151616 1 6 tcp 1040 ------- 0 1.0 4.0 16 32
- 0.15236 6 7 tcp 1040 ------- 0 1.0 4.0 11 23
- 0.152448 1 6 tcp 1040 ------- 0 1.0 4.0 16 32
r 0.153448 1 6 tcp 1040 ------- 0 1.0 4.0 15 31
+ 0.153448 6 7 tcp 1040 ------- 0 1.0 4.0 15 31
r 0.15404 6 7 tcp 1040 ------- 0 1.0 4.0 9 20
+ 0.15404 7 4 tcp 1040 ------- 0 1.0 4.0 9 20
- 0.15404 7 4 tcp 1040 ------- 0 1.0 4.0 9 20
r 0.15428 1 6 tcp 1040 ------- 0 1.0 4.0 16 32
+ 0.15428 6 7 tcp 1040 ------- 0 1.0 4.0 16 32
r 0.155872 7 4 tcp 1040 ------- 0 1.0 4.0 9 20
+ 0.155872 4 7 ack 40 ------- 0 4.0 1.0 9 33
- 0.155872 4 7 ack 40 ------- 0 4.0 1.0 9 33
r 0.156904 4 7 ack 40 ------- 0 4.0 1.0 9 33
+ 0.156904 7 6 ack 40 ------- 0 4.0 1.0 9 33
- 0.156904 7 6 ack 40 ------- 0 4.0 1.0 9 33
r 0.158904 7 6 ack 40 ------- 0 4.0 1.0 8 30
+ 0.158904 6 1 ack 40 ------- 0 4.0 1.0 8 30
- 0.158904 6 1 ack 40 ------- 0 4.0 1.0 8 30
r 0.159936 6 1 ack 40 ------- 0 4.0 1.0 8 30
+ 0.159936 1 6 tcp 1040 ------- 0 1.0 4.0 17 34
- 0.159936 1 6 tcp 1040 ------- 0 1.0 4.0 17 34
+ 0.159936 1 6 tcp 1040 ------- 0 1.0 4.0 18 35
+ 0.16 2 6 exp 1000 ------- 0 2.0 5.0 7 36
- 0.16 2 6 exp 1000 ------- 0 2.0 5.0 7 36
- 0.16068 6 7 tcp 1040 ------- 0 1.0 4.0 12 24
- 0.160768 1 6 tcp 1040 ------- 0 1.0 4.0 18 35
r 0.161768 1 6 tcp 1040 ------- 0 1.0 4.0 17 34
+ 0.161768 6 7 tcp 1040 ------- 0 1.0 4.0 17 34
r 0.1618 2 6 exp 1000 ------- 0 2.0 5.0 7 36
+ 0.1618 6 7 exp 1000 ------- 0 2.0 5.0 7 36
r 0.16236 6 7 tcp 1040 ------- 0 1.0 4.0 10 21
+ 0.16236 7 4 tcp 1040 ------- 0 1.0 4.0 10 21
- 0.16236 7 4 tcp 1040 ------- 0 1.0 4.0 10 21
r 0.1626 1 6 tcp 1040 ------- 0 1.0 4.0 18 35
+ 0.1626 6 7 tcp 1040 ------- 0 1.0 4.0 18 35
r 0.164192 7 4 tcp 1040 ------- 0 1.0 4.0 10 21
+ 0.164192 4 7 ack 40 ------- 0 4.0 1.0 10 37
- 0.164192 4 7 ack 40 ------- 0 4.0 1.0 10 37
r 0.165224 4 7 ack 40 ------- 0 4.0 1.0 10 37
+ 0.165224 7 6 ack 40 ------- 0 4.0 1.0 10 37
- 0.165224 7 6 ack 40 ------- 0 4.0 1.0 10 37
r 0.167224 7 6 ack 40 ------- 0 4.0 1.0 9 33
+ 0.167224 6 1 ack 40 ------- 0 4.0 1.0 9 33
- 0.167224 6 1 ack 40 ------- 0 4.0 1.0 9 33
r 0.168256 6 1 ack 40 ------- 0 4.0 1.0 9 33
+ 0.168256 1 6 tcp 1040 ------- 0 1.0 4.0 19 38
- 0.168256 1 6 tcp 1040 ------- 0 1.0 4.0 19 38
+ 0.168256 1 6 tcp 1040 ------- 0 1.0 4.0 20 39
- 0.169 6 7 exp 1000 ------- 0 2.0 5.0 5 25
- 0.169088 1 6 tcp 1040 ------- 0 1.0 4.0 20 39
r 0.170088 1 6 tcp 1040 ------- 0 1.0 4.0 19 38
+ 0.170088 6 7 tcp 1040 ------- 0 1.0 4.0 19 38
r 0.17068 6 7 tcp 1040 ------- 0 1.0 4.0 11 23
+ 0.17068 7 4 tcp 1040 ------- 0 1.0 4.0 11 23
- 0.17068 7 4 tcp 1040 ------- 0 1.0 4.0 11 23
r 0.17092 1 6 tcp 1040 ------- 0 1.0 4.0 20 39
+ 0.17092 6 7 tcp 1040 ------- 0 1.0 4.0 20 39
r 0.172512 7 4 tcp 1040 ------- 0 1.0 4.0 11 23
+ 0.172512 4 7 ack 40 ------- 0 4.0 1.0 11 40
- 0.172512 4 7 ack 40 ------- 0 4.0 1.0 11 40
r 0.173544 4 7 ack 40 ------- 0 4.0 1.0 11 40
+ 0.173544 7 6 ack 40 ------- 0 4.0 1.0 11 40
- 0.173544 7 6 ack 40 ------- 0 4.0 1.0 11 40
r 0.175544 7 6 ack 40 ------- 0 4.0 1.0 10 37
+ 0.175544 6 1 ack 40 ------- 0 4.0 1.0 10 37
- 0.175544 6 1 ack 40 ------- 0 4.0 1.0 10 37
r 0.176576 6 1 ack 40 ------- 0 4.0 1.0 10 37
+ 0.176576 1 6 tcp 1040 ------- 0 1.0 4.0 21 41
- 0.176576 1 6 tcp 1040 ------- 0 1.0 4.0 21 41
+ 0.176576 1 6 tcp 1040 ------- 0 1.0 4.0 22 42
- 0.177 6 7 tcp 1040 ------- 0 1.0 4.0 13 26
- 0.177408 1 6 tcp 1040 ------- 0 1.0 4.0 22 42
r 0.178408 1 6 tcp 1040 ------- 0 1.0 4.0 21 41
+ 0.178408 6 7 tcp 1040 ------- 0 1.0 4.0 21 41
r 0.179 6 7 tcp 1040 ------- 0 1.0 4.0 12 24
+ 0.179 7 4 tcp 1040 ------- 0 1.0 4.0 12 24
- 0.179 7 4 tcp 1040 ------- 0 1.0 4.0 12 24
r 0.17924 1 6 tcp 1040 ------- 0 1.0 4.0 22 42
+ 0.17924 6 7 tcp 1040 ------- 0 1.0 4.0 22 42
+ 0.18 2 6 exp 1000 ------- 0 2.0 5.0 8 43
- 0.18 2 6 exp 1000 ------- 0 2.0 5.0 8 43
r 0.180832 7 4 tcp 1040 ------- 0 1.0 4.0 12 24
+ 0.180832 4 7 ack 40 ------- 0 4.0 1.0 12 44
- 0.180832 4 7 ack 40 ------- 0 4.0 1.0 12 44
r 0.1818 2 6 exp 1000 ------- 0 2.0 5.0 8 43
+ 0.1818 6 7 exp 1000 ------- 0 2.0 5.0 8 43
r 0.181864 4 7 ack 40 ------- 0 4.0 1.0 12 44
+ 0.181864 7 6 ack 40 ------- 0 4.0 1.0 12 44
- 0.181864 7 6 ack 40 ------- 0 4.0 1.0 12 44
r 0.183864 7 6 ack 40 ------- 0 4.0 1.0 11 40
+ 0.183864 6 1 ack 40 ------- 0 4.0 1.0 11 40
- 0.183864 6 1 ack 40 ------- 0 4.0 1.0 11 40
r 0.184896 6 1 ack 40 ------- 0 4.0 1.0 11 40
+ 0.184896 1 6 tcp 1040 ------- 0 1.0 4.0 23 45
- 0.184896 1 6 tcp 1040 ------- 0 1.0 4.0 23 45
+ 0.184896 1 6 tcp 1040 ------- 0 1.0 4.0 24 46
- 0.18532 6 7 tcp 1040 ------- 0 1.0 4.0 14 27
- 0.185728 1 6 tcp 1040 ------- 0 1.0 4.0 24 46
r 0.186728 1 6 tcp 1040 ------- 0 1.0 4.0 23 45
+ 0.186728 6 7 tcp 1040 ------- 0 1.0 4.0 23 45
r 0.187 6 7 exp 1000 ------- 0 2.0 5.0 5 25
+ 0.187 7 5 exp 1000 ------- 0 2.0 5.0 5 25
- 0.187 7 5 exp 1000 ------- 0 2.0 5.0 5 25
r 0.18756 1 6 tcp 1040 ------- 0 1.0 4.0 24 46
+ 0.18756 6 7 tcp 1040 ------- 0 1.0 4.0 24 46
r 0.1888 7 5 exp 1000 ------- 0 2.0 5.0 5 25
r 0.192184 7 6 ack 40 ------- 0 4.0 1.0 12 44
+ 0.192184 6 1 ack 40 ------- 0 4.0 1.0 12 44
- 0.192184 6 1 ack 40 ------- 0 4.0 1.0 12 44
r 0.193216 6 1 ack 40 ------- 0 4.0 1.0 12 44
+ 0.193216 1 6 tcp 1040 ------- 0 1.0 4.0 25 47
- 0.193216 1 6 tcp 1040 ------- 0 1.0 4.0 25 47
+ 0.193216 1 6 tcp 1040 ------- 0 1.0 4.0 26 48
- 0.19364 6 7 exp 1000 ------- 0 2.0 5.0 6 29
- 0.194048 1 6 tcp 1040 ------- 0 1.0 4.0 26 48
r 0.195048 1 6 tcp 1040 ------- 0 1.0 4.0 25 47
+ 0.195048 6 7 tcp 1040 ------- 0 1.0 4.0 25 47
r 0.19532 6 7 tcp 1040 ------- 0 1.0 4.0 13 26
+ 0.19532 7 4 tcp 1040 ------- 0 1.0 4.0 13 26
- 0.19532 7 4 tcp 1040 ------- 0 1.0 4.0 13 26
r 0.19588 1 6 tcp 1040 ------- 0 1.0 4.0 26 48
+ 0.19588 6 7 tcp 1040 ------- 0 1.0 4.0 26 48
r 0.197152 7 4 tcp 1040 ------- 0 1.0 4.0 13 26
+ 0.197152 4 7 ack 40 ------- 0 4.0 1.0 13 49
- 0.197152 4 7 ack 40 ------- 0 4.0 1.0 13 49
r 0.198184 4 7 ack 40 ------- 0 4.0 1.0 13 49
+ 0.198184 7 6 ack 40 ------- 0 4.0 1.0 13 49
- 0.198184 7 6 ack 40 ------- 0 4.0 1.0 13 49
+ 0.2 2 6 exp 1000 ------- 0 2.0 5.0 9 50
- 0.2 2 6 exp 1000 ------- 0 2.0 5.0 9 50
- 0.20164 6 7 tcp 1040 ------- 0 1.0 4.0 15 31
r 0.2018 2 6 exp 1000 ------- 0 2.0 5.0 9 50
+ 0.2018 6 7 exp 1000 ------- 0 2.0 5.0 9 50
r 0.20364 6 7 tcp 1040 ------- 0 1.0 4.0 14 27
+ 0.20364 7 4 tcp 1040 ------- 0 1.0 4.0 14 27
- 0.20364 7 4 tcp 1040 ------- 0 1.0 4.0 14 27
r 0.205472 7 4 tcp 1040 ------- 0 1.0 4.0 14 27
+ 0.205472 4 7 ack 40 ------- 0 4.0 1.0 14 51
- 0.205472 4 7 ack 40 ------- 0 4.0 1.0 14 51
r 0.206504 4 7 ack 40 ------- 0 4.0 1.0 14 51
+ 0.206504 7 6 ack 40 ------- 0 4.0 1.0 14 51
- 0.206504 7 6 ack 40 ------- 0 4.0 1.0 14 51
r 0.208504 7 6 ack 40 ------- 0 4.0 1.0 13 49
+ 0.208504 6 1 ack 40 ------- 0 4.0 1.0 13 49
- 0.208504 6 1 ack 40 ------- 0 4.0 1.0 13 49
r 0.209536 6 1 ack 40 ------- 0 4.0 1.0 13 49
+ 0.209536 1 6 tcp 1040 ------- 0 1.0 4.0 27 52
- 0.209536 1 6 tcp 1040 ------- 0 1.0 4.0 27 52
+ 0.209536 1 6 tcp 1040 ------- 0 1.0 4.0 28 53
- 0.20996 6 7 tcp 1040 ------- 0 1.0 4.0 16 32
- 0.210368 1 6 tcp 1040 ------- 0 1.0 4.0 28 53
r 0.211368 1 6 tcp 1040 ------- 0 1.0 4.0 27 52
+ 0.211368 6 7 tcp 1040 ------- 0 1.0 4.0 27 52
r 0.21164 6 7 exp 1000 ------- 0 2.0 5.0 6 29
+ 0.21164 7 5 exp 1000 ------- 0 2.0 5.0 6 29
- 0.21164 7 5 exp 1000 ------- 0 2.0 5.0 6 29
r 0.2122 1 6 tcp 1040 ------- 0 1.0 4.0 28 53
+ 0.2122 6 7 tcp 1040 ------- 0 1.0 4.0 28 53
r 0.21344 7 5 exp 1000 ------- 0 2.0 5.0 6 29
r 0.216824 7 6 ack 40 ------- 0 4.0 1.0 14 51
+ 0.216824 6 1 ack 40 ------- 0 4.0 1.0 14 51
- 0.216824 6 1 ack 40 ------- 0 4.0 1.0 14 51
r 0.217856 6 1 ack 40 ------- 0 4.0 1.0 14 51
+ 0.217856 1 6 tcp 1040 ------- 0 1.0 4.0 29 54
- 0.217856 1 6 tcp 1040 ------- 0 1.0 4.0 29 54
+ 0.217856 1 6 tcp 1040 ------- 0 1.0 4.0 30 55
- 0.21828 6 7 tcp 1040 ------- 0 1.0 4.0 17 34
- 0.218688 1 6 tcp 1040 ------- 0 1.0 4.0 30 55
r 0.219688 1 6 tcp 1040 ------- 0 1.0 4.0 29 54
+ 0.219688 6 7 tcp 1040 ------- 0 1.0 4.0 29 54
r 0.21996 6 7 tcp 1040 ------- 0 1.0 4.0 15 31
+ 0.21996 7 4 tcp 1040 ------- 0 1.0 4.0 15 31
- 0.21996 7 4 tcp 1040 ------- 0 1.0 4.0 15 31
+ 0.22 2 6 exp 1000 ------- 0 2.0 5.0 10 56
- 0.22 2 6 exp 1000 ------- 0 2.0 5.0 10 56
r 0.22052 1 6 tcp 1040 ------- 0 1.0 4.0 30 55
+ 0.22052 6 7 tcp 1040 ------- 0 1.0 4.0 30 55
r 0.221792 7 4 tcp 1040 ------- 0 1.0 4.0 15 31
+ 0.221792 4 7 ack 40 ------- 0 4.0 1.0 15 57
- 0.221792 4 7 ack 40 ------- 0 4.0 1.0 15 57
r 0.2218 2 6 exp 1000 ------- 0 2.0 5.0 10 56
+ 0.2218 6 7 exp 1000 ------- 0 2.0 5.0 10 56
r 0.222824 4 7 ack 40 ------- 0 4.0 1.0 15 57
+ 0.222824 7 6 ack 40 ------- 0 4.0 1.0 15 57
- 0.222824 7 6 ack 40 ------- 0 4.0 1.0 15 57
- 0.2266 6 7 exp 1000 ------- 0 2.0 5.0 7 36
r 0.22828 6 7 tcp 1040 ------- 0 1.0 4.0 16 32
+ 0.22828 7 4 tcp 1040 ------- 0 1.0 4.0 16 32
- 0.22828 7 4 tcp 1040 ------- 0 1.0 4.0 16 32
r 0.230112 7 4 tcp 1040 ------- 0 1.0 4.0 16 32
+ 0.230112 4 7 ack 40 ------- 0 4.0 1.0 16 58
- 0.230112 4 7 ack 40 ------- 0 4.0 1.0 16 58
r 0.231144 4 7 ack 40 ------- 0 4.0 1.0 16 58
+ 0.231144 7 6 ack 40 ------- 0 4.0 1.0 16 58
- 0.231144 7 6 ack 40 ------- 0 4.0 1.0 16 58
r 0.233144 7 6 ack 40 ------- 0 4.0 1.0 15 57
+ 0.233144 6 1 ack 40 ------- 0 4.0 1.0 15 57
- 0.233144 6 1 ack 40 ------- 0 4.0 1.0 15 57
r 0.234176 6 1 ack 40 ------- 0 4.0 1.0 15 57
+ 0.234176 1 6 tcp 1040 ------- 0 1.0 4.0 31 59
- 0.234176 1 6 tcp 1040 ------- 0 1.0 4.0 31 59
+ 0.234176 1 6 tcp 1040 ------- 0 1.0 4.0 32 60
- 0.2346 6 7 tcp 1040 ------- 0 1.0 4.0 18 35
- 0.235008 1 6 tcp 1040 ------- 0 1.0 4.0 32 60
r 0.236008 1 6 tcp 1040 ------- 0 1.0 4.0 31 59
+ 0.236008 6 7 tcp 1040 ------- 0 1.0 4.0 31 59
r 0.2366 6 7 tcp 1040 ------- 0 1.0 4.0 17 34
+ 0.2366 7 4 tcp 1040 ------- 0 1.0 4.0 17 34
- 0.2366 7 4 tcp 1040 ------- 0 1.0 4.0 17 34
r 0.23684 1 6 tcp 1040 ------- 0 1.0 4.0 32 60
+ 0.23684 6 7 tcp 1040 ------- 0 1.0 4.0 32 60
r 0.238432 7 4 tcp 1040 ------- 0 1.0 4.0 17 34
+ 0.238432 4 7 ack 40 ------- 0 4.0 1.0 17 61
- 0.238432 4 7 ack 40 ------- 0 4.0 1.0 17 61
r 0.239464 4 7 ack 40 ------- 0 4.0 1.0 17 61
+ 0.239464 7 6 ack 40 ------- 0 4.0 1.0 17 61
- 0.239464 7 6 ack 40 ------- 0 4.0 1.0 17 61
+ 0.24 2 6 exp 1000 ------- 0 2.0 5.0 11 62
- 0.24 2 6 exp 1000 ------- 0 2.0 5.0 11 62
r 0.241464 7 6 ack 40 ------- 0 4.0 1.0 16 58
+ 0.241464 6 1 ack 40 ------- 0 4.0 1.0 16 58
- 0.241464 6 1 ack 40 ------- 0 4.0 1.0 16 58
r 0.2418 2 6 exp 1000 ------- 0 2.0 5.0 11 62
+ 0.2418 6 7 exp 1000 ------- 0 2.0 5.0 11 62
r 0.242496 6 1 ack 40 ------- 0 4.0 1.0 16 58
+ 0.242496 1 6 tcp 1040 ------- 0 1.0 4.0 33 63
- 0.242496 1 6 tcp 1040 ------- 0 1.0 4.0 33 63
+ 0.242496 1 6 tcp 1040 ------- 0 1.0 4.0 34 64
- 0.24292 6 7 tcp 1040 ------- 0 1.0 4.0 19 38
- 0.243328 1 6 tcp 1040 ------- 0 1.0 4.0 34 64
r 0.244328 1 6 tcp 1040 ------- 0 1.0 4.0 33 63
+ 0.244328 6 7 tcp 1040 ------- 0 1.0 4.0 33 63
r 0.2446 6 7 exp 1000 ------- 0 2.0 5.0 7 36
+ 0.2446 7 5 exp 1000 ------- 0 2.0 5.0 7 36
- 0.2446 7 5 exp 1000 ------- 0 2.0 5.0 7 36
r 0.24516 1 6 tcp 1040 ------- 0 1.0 4.0 34 64
+ 0.24516 6 7 tcp 1040 ------- 0 1.0 4.0 34 64
r 0.2464 7 5 exp 1000 ------- 0 2.0 5.0 7 36
r 0.249784 7 6 ack 40 ------- 0 4.0 1.0 17 61
+ 0.249784 6 1 ack 40 ------- 0 4.0 1.0 17 61
- 0.249784 6 1 ack 40 ------- 0 4.0 1.0 17 61
r 0.250816 6 1 ack 40 ------- 0 4.0 1.0 17 61
+ 0.250816 1 6 tcp 1040 ------- 0 1.0 4.0 35 65
- 0.250816 1 6 tcp 1040 ------- 0 1.0 4.0 35 65
+ 0.250816 1 6 tcp 1040 ------- 0 1.0 4.0 36 66
- 0.25124 6 7 tcp 1040 ------- 0 1.0 4.0 20 39
- 0.251648 1 6 tcp 1040 ------- 0 1.0 4.0 36 66
r 0.252648 1 6 tcp 1040 ------- 0 1.0 4.0 35 65
+ 0.252648 6 7 tcp 1040 ------- 0 1.0 4.0 35 65
r 0.25292 6 7 tcp 1040 ------- 0 1.0 4.0 18 35
+ 0.25292 7 4 tcp 1040 ------- 0 1.0 4.0 18 35
- 0.25292 7 4 tcp 1040 ------- 0 1.0 4.0 18 35
r 0.25348 1 6 tcp 1040 ------- 0 1.0 4.0 36 66
+ 0.25348 6 7 tcp 1040 ------- 0 1.0 4.0 36 66
r 0.254752 7 4 tcp 1040 ------- 0 1.0 4.0 18 35
+ 0.254752 4 7 ack 40 ------- 0 4.0 1.0 18 67
- 0.254752 4 7 ack 40 ------- 0 4.0 1.0 18 67
r 0.255784 4 7 ack 40 ------- 0 4.0 1.0 18 67
+ 0.255784 7 6 ack 40 ------- 0 4.0 1.0 18 67
- 0.255784 7 6 ack 40 ------- 0 4.0 1.0 18 67
- 0.25956 6 7 tcp 1040 ------- 0 1.0 4.0 21 41
+ 0.26 2 6 exp 1000 ------- 0 2.0 5.0 12 68
- 0.26 2 6 exp 1000 ------- 0 2.0 5.0 12 68
r 0.26124 6 7 tcp 1040 ------- 0 1.0 4.0 19 38
+ 0.26124 7 4 tcp 1040 ------- 0 1.0 4.0 19 38
- 0.26124 7 4 tcp 1040 ------- 0 1.0 4.0 19 38
r 0.2618 2 6 exp 1000 ------- 0 2.0 5.0 12 68
+ 0.2618 6 7 exp 1000 ------- 0 2.0 5.0 12 68
r 0.263072 7 4 tcp 1040 ------- 0 1.0 4.0 19 38
+ 0.263072 4 7 ack 40 ------- 0 4.0 1.0 19 69
- 0.263072 4 7 ack 40 ------- 0 4.0 1.0 19 69
r 0.264104 4 7 ack 40 ------- 0 4.0 1.0 19 69
+ 0.264104 7 6 ack 40 ------- 0 4.0 1.0 19 69
- 0.264104 7 6 ack 40 ------- 0 4.0 1.0 19 69
r 0.266104 7 6 ack 40 ------- 0 4.0 1.0 18 67
+ 0.266104 6 1 ack 40 ------- 0 4.0 1.0 18 67
- 0.266104 6 1 ack 40 ------- 0 4.0 1.0 18 67
r 0.267136 6 1 ack 40 ------- 0 4.0 1.0 18 67
+ 0.267136 1 6 tcp 1040 ------- 0 1.0 4.0 37 70
- 0.267136 1 6 tcp 1040 ------- 0 1.0 4.0 37 70
+ 0.267136 1 6 tcp 1040 ------- 0 1.0 4.0 38 71
- 0.26788 6 7 tcp 1040 ------- 0 1.0 4.0 22 42
- 0.267968 1 6 tcp 1040 ------- 0 1.0 4.0 38 71
r 0.268968 1 6 tcp 1040 ------- 0 1.0 4.0 37 70
+ 0.268968 6 7 tcp 1040 ------- 0 1.0 4.0 37 70
r 0.26956 6 7 tcp 1040 ------- 0 1.0 4.0 20 39
+ 0.26956 7 4 tcp 1040 ------- 0 1.0 4.0 20 39
- 0.26956 7 4 tcp 1040 ------- 0 1.0 4.0 20 39
r 0.2698 1 6 tcp 1040 ------- 0 1.0 4.0 38 71
+ 0.2698 6 7 tcp 1040 ------- 0 1.0 4.0 38 71
r 0.271392 7 4 tcp 1040 ------- 0 1.0 4.0 20 39
+ 0.271392 4 7 ack 40 ------- 0 4.0 1.0 20 72
- 0.271392 4 7 ack 40 ------- 0 4.0 1.0 20 72
r 0.272424 4 7 ack 40 ------- 0 4.0 1.0 20 72
+ 0.272424 7 6 ack 40 ------- 0 4.0 1.0 20 72
- 0.272424 7 6 ack 40 ------- 0 4.0 1.0 20 72
r 0.274424 7 6 ack 40 ------- 0 4.0 1.0 19 69
+ 0.274424 6 1 ack 40 ------- 0 4.0 1.0 19 69
- 0.274424 6 1 ack 40 ------- 0 4.0 1.0 19 69
r 0.275456 6 1 ack 40 ------- 0 4.0 1.0 19 69
+ 0.275456 1 6 tcp 1040 ------- 0 1.0 4.0 39 73
- 0.275456 1 6 tcp 1040 ------- 0 1.0 4.0 39 73
- 0.2762 6 7 exp 1000 ------- 0 2.0 5.0 8 43
r 0.277288 1 6 tcp 1040 ------- 0 1.0 4.0 39 73
+ 0.277288 6 7 tcp 1040 ------- 0 1.0 4.0 39 73
r 0.27788 6 7 tcp 1040 ------- 0 1.0 4.0 21 41
+ 0.27788 7 4 tcp 1040 ------- 0 1.0 4.0 21 41
- 0.27788 7 4 tcp 1040 ------- 0 1.0 4.0 21 41
r 0.279712 7 4 tcp 1040 ------- 0 1.0 4.0 21 41
+ 0.279712 4 7 ack 40 ------- 0 4.0 1.0 21 74
- 0.279712 4 7 ack 40 ------- 0 4.0 1.0 21 74
+ 0.28 2 6 exp 1000 ------- 0 2.0 5.0 13 75
- 0.28 2 6 exp 1000 ------- 0 2.0 5.0 13 75
r 0.280744 4 7 ack 40 ------- 0 4.0 1.0 21 74
+ 0.280744 7 6 ack 40 ------- 0 4.0 1.0 21 74
- 0.280744 7 6 ack 40 ------- 0 4.0 1.0 21 74
r 0.2818 2 6 exp 1000 ------- 0 2.0 5.0 13 75
+ 0.2818 6 7 exp 1000 ------- 0 2.0 5.0 13 75
r 0.282744 7 6 ack 40 ------- 0 4.0 1.0 20 72
+ 0.282744 6 1 ack 40 ------- 0 4.0 1.0 20 72
- 0.282744 6 1 ack 40 ------- 0 4.0 1.0 20 72
r 0.283776 6 1 ack 40 ------- 0 4.0 1.0 20 72
+ 0.283776 1 6 tcp 1040 ------- 0 1.0 4.0 40 76
- 0.283776 1 6 tcp 1040 ------- 0 1.0 4.0 40 76
- 0.2842 6 7 tcp 1040 ------- 0 1.0 4.0 23 45
r 0.285608 1 6 tcp 1040 ------- 0 1.0 4.0 40 76
+ 0.285608 6 7 tcp 1040 ------- 0 1.0 4.0 40 76
r 0.2862 6 7 tcp 1040 ------- 0 1.0 4.0 22 42
+ 0.2862 7 4 tcp 1040 ------- 0 1.0 4.0 22 42
- 0.2862 7 4 tcp 1040 ------- 0 1.0 4.0 22 42
r 0.288032 7 4 tcp 1040 ------- 0 1.0 4.0 22 42
+ 0.288032 4 7 ack 40 ------- 0 4.0 1.0 22 77
- 0.288032 4 7 ack 40 ------- 0 4.0 1.0 22 77
r 0.289064 4 7 ack 40 ------- 0 4.0 1.0 22 77
+ 0.289064 7 6 ack 40 ------- 0 4.0 1.0 22 77
- 0.289064 7 6 ack 40 ------- 0 4.0 1.0 22 77
r 0.291064 7 6 ack 40 ------- 0 4.0 1.0 21 74
+ 0.291064 6 1 ack 40 ------- 0 4.0 1.0 21 74
- 0.291064 6 1 ack 40 ------- 0 4.0 1.0 21 74
r 0.292096 6 1 ack 40 ------- 0 4.0 1.0 21 74
+ 0.292096 1 6 tcp 1040 ------- 0 1.0 4.0 41 78
- 0.292096 1 6 tcp 1040 ------- 0 1.0 4.0 41 78
- 0.29252 6 7 tcp 1040 ------- 0 1.0 4.0 24 46
r 0.293928 1 6 tcp 1040 ------- 0 1.0 4.0 41 78
+ 0.293928 6 7 tcp 1040 ------- 0 1.0 4.0 41 78
r 0.2942 6 7 exp 1000 ------- 0 2.0 5.0 8 43
+ 0.2942 7 5 exp 1000 ------- 0 2.0 5.0 8 43
- 0.2942 7 5 exp 1000 ------- 0 2.0 5.0 8 43
r 0.296 7 5 exp 1000 ------- 0 2.0 5.0 8 43
r 0.299384 7 6 ack 40 ------- 0 4.0 1.0 22 77
+ 0.299384 6 1 ack 40 ------- 0 4.0 1.0 22 77
- 0.299384 6 1 ack 40 ------- 0 4.0 1.0 22 77
+ 0.3 2 6 exp 1000 ------- 0 2.0 5.0 14 79
- 0.3 2 6 exp 1000 ------- 0 2.0 5.0 14 79
r 0.300416 6 1 ack 40 ------- 0 4.0 1.0 22 77
+ 0.300416 1 6 tcp 1040 ------- 0 1.0 4.0 42 80
- 0.300416 1 6 tcp 1040 ------- 0 1.0 4.0 42 80
- 0.30084 6 7 tcp 1040 ------- 0 1.0 4.0 25 47
r 0.3018 2 6 exp 1000 ------- 0 2.0 5.0 14 79
+ 0.3018 6 7 exp 1000 ------- 0 2.0 5.0 14 79
r 0.302248 1 6 tcp 1040 ------- 0 1.0 4.0 42 80
+ 0.302248 6 7 tcp 1040 ------- 0 1.0 4.0 42 80
r 0.30252 6 7 tcp 1040 ------- 0 1.0 4.0 23 45
+ 0.30252 7 4 tcp 1040 ------- 0 1.0 4.0 23 45
- 0.30252 7 4 tcp 1040 ------- 0 1.0 4.0 23 45
r 0.304352 7 4 tcp 1040 ------- 0 1.0 4.0 23 45
+ 0.304352 4 7 ack 40 ------- 0 4.0 1.0 23 81
- 0.304352 4 7 ack 40 ------- 0 4.0 1.0 23 81
r 0.305384 4 7 ack 40 ------- 0 4.0 1.0 23 81
+ 0.305384 7 6 ack 40 ------- 0 4.0 1.0 23 81
- 0.305384 7 6 ack 40 ------- 0 4.0 1.0 23 81
- 0.30916 6 7 tcp 1040 ------- 0 1.0 4.0 26 48
r 0.31084 6 7 tcp 1040 ------- 0 1.0 4.0 24 46
+ 0.31084 7 4 tcp 1040 ------- 0 1.0 4.0 24 46
- 0.31084 7 4 tcp 1040 ------- 0 1.0 4.0 24 46
r 0.312672 7 4 tcp 1040 ------- 0 1.0 4.0 24 46
+ 0.312672 4 7 ack 40 ------- 0 4.0 1.0 24 82
- 0.312672 4 7 ack 40 ------- 0 4.0 1.0 24 82
r 0.313704 4 7 ack 40 ------- 0 4.0 1.0 24 82
+ 0.313704 7 6 ack 40 ------- 0 4.0 1.0 24 82
- 0.313704 7 6 ack 40 ------- 0 4.0 1.0 24 82
r 0.315704 7 6 ack 40 ------- 0 4.0 1.0 23 81
+ 0.315704 6 1 ack 40 ------- 0 4.0 1.0 23 81
- 0.315704 6 1 ack 40 ------- 0 4.0 1.0 23 81
r 0.316736 6 1 ack 40 ------- 0 4.0 1.0 23 81
+ 0.316736 1 6 tcp 1040 ------- 0 1.0 4.0 43 83
- 0.316736 1 6 tcp 1040 ------- 0 1.0 4.0 43 83
- 0.31748 6 7 exp 1000 ------- 0 2.0 5.0 9 50
r 0.318568 1 6 tcp 1040 ------- 0 1.0 4.0 43 83
+ 0.318568 6 7 tcp 1040 ------- 0 1.0 4.0 43 83
r 0.31916 6 7 tcp 1040 ------- 0 1.0 4.0 25 47
+ 0.31916 7 4 tcp 1040 ------- 0 1.0 4.0 25 47
- 0.31916 7 4 tcp 1040 ------- 0 1.0 4.0 25 47
+ 0.32 2 6 exp 1000 ------- 0 2.0 5.0 15 84
- 0.32 2 6 exp 1000 ------- 0 2.0 5.0 15 84
r 0.320992 7 4 tcp 1040 ------- 0 1.0 4.0 25 47
+ 0.320992 4 7 ack 40 ------- 0 4.0 1.0 25 85
- 0.320992 4 7 ack 40 ------- 0 4.0 1.0 25 85
r 0.3218 2 6 exp 1000 ------- 0 2.0 5.0 15 84
+ 0.3218 6 7 exp 1000 ------- 0 2.0 5.0 15 84
r 0.322024 4 7 ack 40 ------- 0 4.0 1.0 25 85
+ 0.322024 7 6 ack 40 ------- 0 4.0 1.0 25 85
- 0.322024 7 6 ack 40 ------- 0 4.0 1.0 25 85
r 0.324024 7 6 ack 40 ------- 0 4.0 1.0 24 82
+ 0.324024 6 1 ack 40 ------- 0 4.0 1.0 24 82
- 0.324024 6 1 ack 40 ------- 0 4.0 1.0 24 82
r 0.325056 6 1 ack 40 ------- 0 4.0 1.0 24 82
+ 0.325056 1 6 tcp 1040 ------- 0 1.0 4.0 44 86
- 0.325056 1 6 tcp 1040 ------- 0 1.0 4.0 44 86
- 0.32548 6 7 tcp 1040 ------- 0 1.0 4.0 27 52
r 0.326888 1 6 tcp 1040 ------- 0 1.0 4.0 44 86
+ 0.326888 6 7 tcp 1040 ------- 0 1.0 4.0 44 86