+ 0 1 6 tcp 40 ------- 0 1.0 4.0 0 0
- 0 1 6 tcp 40 ------- 0 1.0 4.0 0 0
r 0.001032 1 6 tcp 40 ------- 0 1.0 4.0 0 0
+ 0.001032 6 7 tcp 40 ------- 0 1.0 4.0 0 0
- 0.001032 6 7 tcp 40 ------- 0 1.0 4.0 0 0
r 0.011352 6 7 tcp 40 ------- 0 1.0 4.0 0 0
+ 0.011352 7 4 tcp 40 ------- 0 1.0 4.0 0 0
- 0.011352 7 4 tcp 40 ------- 0 1.0 4.0 0 0
r 0.012384 7 4 tcp 40 ------- 0 1.0 4.0 0 0
+ 0.012384 4 7 ack 40 ------- 0 4.0 1.0 0 1
- 0.012384 4 7 ack 40 ------- 0 4.0 1.0 0 1
r 0.013416 4 7 ack 40 ------- 0 4.0 1.0 0 1
+ 0.013416 7 6 ack 40 ------- 0 4.0 1.0 0 1
- 0.013416 7 6 ack 40 ------- 0 4.0 1.0 0 1
+ 0.016 2 6 exp 1000 ------- 0 2.0 5.0 0 2
- 0.016 2 6 exp 1000 ------- 0 2.0 5.0 0 2
r 0.0178 2 6 exp 1000 ------- 0 2.0 5.0 0 2
+ 0.0178 6 7 exp 1000 ------- 0 2.0 5.0 0 2
- 0.0178 6 7 exp 1000 ------- 0 2.0 5.0 0 2
r 0.023736 7 6 ack 40 ------- 0 4.0 1.0 0 1
+ 0.023736 6 1 ack 40 ------- 0 4.0 1.0 0 1
- 0.023736 6 1 ack 40 ------- 0 4.0 1.0 0 1
r 0.024768 6 1 ack 40 ------- 0 4.0 1.0 0 1
+ 0.024768 1 6 tcp 1040 ------- 0 1.0 4.0 1 3
- 0.024768 1 6 tcp 1040 ------- 0 1.0 4.0 1 3
+ 0.024768 1 6 tcp 1040 ------- 0 1.0 4.0 2 4
- 0.0256 1 6 tcp 1040 ------- 0 1.0 4.0 2 4
r 0.0266 1 6 tcp 1040 ------- 0 1.0 4.0 1 3
+ 0.0266 6 7 tcp 1040 ------- 0 1.0 4.0 1 3
- 0.0266 6 7 tcp 1040 ------- 0 1.0 4.0 1 3
r 0.027432 1 6 tcp 1040 ------- 0 1.0 4.0 2 4
+ 0.027432 6 7 tcp 1040 ------- 0 1.0 4.0 2 4
+ 0.032 2 6 exp 1000 ------- 0 2.0 5.0 1 5
- 0.032 2 6 exp 1000 ------- 0 2.0 5.0 1 5
r 0.0338 2 6 exp 1000 ------- 0 2.0 5.0 1 5
+ 0.0338 6 7 exp 1000 ------- 0 2.0 5.0 1 5
- 0.03492 6 7 tcp 1040 ------- 0 1.0 4.0 2 4
r 0.0358 6 7 exp 1000 ------- 0 2.0 5.0 0 2
+ 0.0358 7 5 exp 1000 ------- 0 2.0 5.0 0 2
- 0.0358 7 5 exp 1000 ------- 0 2.0 5.0 0 2
r 0.0376 7 5 exp 1000 ------- 0 2.0 5.0 0 2
- 0.04324 6 7 exp 1000 ------- 0 2.0 5.0 1 5
r 0.04492 6 7 tcp 1040 ------- 0 1.0 4.0 1 3
+ 0.04492 7 4 tcp 1040 ------- 0 1.0 4.0 1 3
- 0.04492 7 4 tcp 1040 ------- 0 1.0 4.0 1 3
r 0.046752 7 4 tcp 1040 ------- 0 1.0 4.0 1 3
+ 0.046752 4 7 ack 40 ------- 0 4.0 1.0 1 6
- 0.046752 4 7 ack 40 ------- 0 4.0 1.0 1 6
r 0.047784 4 7 ack 40 ------- 0 4.0 1.0 1 6
+ 0.047784 7 6 ack 40 ------- 0 4.0 1.0 1 6
- 0.047784 7 6 ack 40 ------- 0 4.0 1.0 1 6
+ 0.048 2 6 exp 1000 ------- 0 2.0 5.0 2 7
- 0.048 2 6 exp 1000 ------- 0 2.0 5.0 2 7
r 0.0498 2 6 exp 1000 ------- 0 2.0 5.0 2 7
+ 0.0498 6 7 exp 1000 ------- 0 2.0 5.0 2 7
- 0.05124 6 7 exp 1000 ------- 0 2.0 5.0 2 7
r 0.05324 6 7 tcp 1040 ------- 0 1.0 4.0 2 4
+ 0.05324 7 4 tcp 1040 ------- 0 1.0 4.0 2 4
- 0.05324 7 4 tcp 1040 ------- 0 1.0 4.0 2 4
r 0.055072 7 4 tcp 1040 ------- 0 1.0 4.0 2 4
+ 0.055072 4 7 ack 40 ------- 0 4.0 1.0 2 8
- 0.055072 4 7 ack 40 ------- 0 4.0 1.0 2 8
r 0.056104 4 7 ack 40 ------- 0 4.0 1.0 2 8
+ 0.056104 7 6 ack 40 ------- 0 4.0 1.0 2 8
- 0.056104 7 6 ack 40 ------- 0 4.0 1.0 2 8
r 0.058104 7 6 ack 40 ------- 0 4.0 1.0 1 6
+ 0.058104 6 1 ack 40 ------- 0 4.0 1.0 1 6
- 0.058104 6 1 ack 40 ------- 0 4.0 1.0 1 6
r 0.059136 6 1 ack 40 ------- 0 4.0 1.0 1 6
+ 0.059136 1 6 tcp 1040 ------- 0 1.0 4.0 3 9
- 0.059136 1 6 tcp 1040 ------- 0 1.0 4.0 3 9
+ 0.059136 1 6 tcp 1040 ------- 0 1.0 4.0 4 10
- 0.059968 1 6 tcp 1040 ------- 0 1.0 4.0 4 10
r 0.060968 1 6 tcp 1040 ------- 0 1.0 4.0 3 9
+ 0.060968 6 7 tcp 1040 ------- 0 1.0 4.0 3 9
- 0.060968 6 7 tcp 1040 ------- 0 1.0 4.0 3 9
r 0.06124 6 7 exp 1000 ------- 0 2.0 5.0 1 5
+ 0.06124 7 5 exp 1000 ------- 0 2.0 5.0 1 5
- 0.06124 7 5 exp 1000 ------- 0 2.0 5.0 1 5
r 0.0618 1 6 tcp 1040 ------- 0 1.0 4.0 4 10
+ 0.0618 6 7 tcp 1040 ------- 0 1.0 4.0 4 10
r 0.06304 7 5 exp 1000 ------- 0 2.0 5.0 1 5
+ 0.064 2 6 exp 1000 ------- 0 2.0 5.0 3 11
- 0.064 2 6 exp 1000 ------- 0 2.0 5.0 3 11
r 0.0658 2 6 exp 1000 ------- 0 2.0 5.0 3 11
+ 0.0658 6 7 exp 1000 ------- 0 2.0 5.0 3 11
r 0.066424 7 6 ack 40 ------- 0 4.0 1.0 2 8
+ 0.066424 6 1 ack 40 ------- 0 4.0 1.0 2 8
- 0.066424 6 1 ack 40 ------- 0 4.0 1.0 2 8
r 0.067456 6 1 ack 40 ------- 0 4.0 1.0 2 8
+ 0.067456 1 6 tcp 1040 ------- 0 1.0 4.0 5 12
- 0.067456 1 6 tcp 1040 ------- 0 1.0 4.0 5 12
+ 0.067456 1 6 tcp 1040 ------- 0 1.0 4.0 6 13
- 0.068288 1 6 tcp 1040 ------- 0 1.0 4.0 6 13
r 0.06924 6 7 exp 1000 ------- 0 2.0 5.0 2 7
+ 0.06924 7 5 exp 1000 ------- 0 2.0 5.0 2 7
- 0.06924 7 5 exp 1000 ------- 0 2.0 5.0 2 7
- 0.069288 6 7 tcp 1040 ------- 0 1.0 4.0 4 10
r 0.069288 1 6 tcp 1040 ------- 0 1.0 4.0 5 12
+ 0.069288 6 7 tcp 1040 ------- 0 1.0 4.0 5 12
r 0.07012 1 6 tcp 1040 ------- 0 1.0 4.0 6 13
+ 0.07012 6 7 tcp 1040 ------- 0 1.0 4.0 6 13
r 0.07104 7 5 exp 1000 ------- 0 2.0 5.0 2 7
- 0.077608 6 7 exp 1000 ------- 0 2.0 5.0 3 11
r 0.079288 6 7 tcp 1040 ------- 0 1.0 4.0 3 9
+ 0.079288 7 4 tcp 1040 ------- 0 1.0 4.0 3 9
- 0.079288 7 4 tcp 1040 ------- 0 1.0 4.0 3 9
+ 0.08 2 6 exp 1000 ------- 0 2.0 5.0 4 14
- 0.08 2 6 exp 1000 ------- 0 2.0 5.0 4 14
r 0.08112 7 4 tcp 1040 ------- 0 1.0 4.0 3 9
+ 0.08112 4 7 ack 40 ------- 0 4.0 1.0 3 15
- 0.08112 4 7 ack 40 ------- 0 4.0 1.0 3 15
r 0.0818 2 6 exp 1000 ------- 0 2.0 5.0 4 14
+ 0.0818 6 7 exp 1000 ------- 0 2.0 5.0 4 14
r 0.082152 4 7 ack 40 ------- 0 4.0 1.0 3 15
+ 0.082152 7 6 ack 40 ------- 0 4.0 1.0 3 15
- 0.082152 7 6 ack 40 ------- 0 4.0 1.0 3 15
- 0.085608 6 7 tcp 1040 ------- 0 1.0 4.0 5 12
r 0.087608 6 7 tcp 1040 ------- 0 1.0 4.0 4 10
+ 0.087608 7 4 tcp 1040 ------- 0 1.0 4.0 4 10
- 0.087608 7 4 tcp 1040 ------- 0 1.0 4.0 4 10
r 0.08944 7 4 tcp 1040 ------- 0 1.0 4.0 4 10
+ 0.08944 4 7 ack 40 ------- 0 4.0 1.0 4 16
- 0.08944 4 7 ack 40 ------- 0 4.0 1.0 4 16
r 0.090472 4 7 ack 40 ------- 0 4.0 1.0 4 16
+ 0.090472 7 6 ack 40 ------- 0 4.0 1.0 4 16
- 0.090472 7 6 ack 40 ------- 0 4.0 1.0 4 16
r 0.092472 7 6 ack 40 ------- 0 4.0 1.0 3 15
+ 0.092472 6 1 ack 40 ------- 0 4.0 1.0 3 15
- 0.092472 6 1 ack 40 ------- 0 4.0 1.0 3 15
r 0.093504 6 1 ack 40 ------- 0 4.0 1.0 3 15
+ 0.093504 1 6 tcp 1040 ------- 0 1.0 4.0 7 17
- 0.093504 1 6 tcp 1040 ------- 0 1.0 4.0 7 17
+ 0.093504 1 6 tcp 1040 ------- 0 1.0 4.0 8 18
- 0.093928 6 7 tcp 1040 ------- 0 1.0 4.0 6 13
- 0.094336 1 6 tcp 1040 ------- 0 1.0 4.0 8 18
r 0.095336 1 6 tcp 1040 ------- 0 1.0 4.0 7 17
+ 0.095336 6 7 tcp 1040 ------- 0 1.0 4.0 7 17
r 0.095608 6 7 exp 1000 ------- 0 2.0 5.0 3 11
+ 0.095608 7 5 exp 1000 ------- 0 2.0 5.0 3 11
- 0.095608 7 5 exp 1000 ------- 0 2.0 5.0 3 11
+ 0.096 2 6 exp 1000 ------- 0 2.0 5.0 5 19
- 0.096 2 6 exp 1000 ------- 0 2.0 5.0 5 19
r 0.096168 1 6 tcp 1040 ------- 0 1.0 4.0 8 18
+ 0.096168 6 7 tcp 1040 ------- 0 1.0 4.0 8 18
r 0.097408 7 5 exp 1000 ------- 0 2.0 5.0 3 11
r 0.0978 2 6 exp 1000 ------- 0 2.0 5.0 5 19
+ 0.0978 6 7 exp 1000 ------- 0 2.0 5.0 5 19
r 0.100792 7 6 ack 40 ------- 0 4.0 1.0 4 16
+ 0.100792 6 1 ack 40 ------- 0 4.0 1.0 4 16
- 0.100792 6 1 ack 40 ------- 0 4.0 1.0 4 16
r 0.101824 6 1 ack 40 ------- 0 4.0 1.0 4 16
+ 0.101824 1 6 tcp 1040 ------- 0 1.0 4.0 9 20
- 0.101824 1 6 tcp 1040 ------- 0 1.0 4.0 9 20
+ 0.101824 1 6 tcp 1040 ------- 0 1.0 4.0 10 21
- 0.102248 6 7 exp 1000 ------- 0 2.0 5.0 4 14
- 0.102656 1 6 tcp 1040 ------- 0 1.0 4.0 10 21
r 0.103656 1 6 tcp 1040 ------- 0 1.0 4.0 9 20
+ 0.103656 6 7 tcp 1040 ------- 0 1.0 4.0 9 20
r 0.103928 6 7 tcp 1040 ------- 0 1.0 4.0 5 12
+ 0.103928 7 4 tcp 1040 ------- 0 1.0 4.0 5 12
- 0.103928 7 4 tcp 1040 ------- 0 1.0 4.0 5 12
r 0.104488 1 6 tcp 1040 ------- 0 1.0 4.0 10 21
+ 0.104488 6 7 tcp 1040 ------- 0 1.0 4.0 10 21
r 0.10576 7 4 tcp 1040 ------- 0 1.0 4.0 5 12
+ 0.10576 4 7 ack 40 ------- 0 4.0 1.0 5 22
- 0.10576 4 7 ack 40 ------- 0 4.0 1.0 5 22
r 0.106792 4 7 ack 40 ------- 0 4.0 1.0 5 22
+ 0.106792 7 6 ack 40 ------- 0 4.0 1.0 5 22
- 0.106792 7 6 ack 40 ------- 0 4.0 1.0 5 22
- 0.110248 6 7 tcp 1040 ------- 0 1.0 4.0 7 17
+ 0.112 2 6 exp 1000 ------- 0 2.0 5.0 6 23
- 0.112 2 6 exp 1000 ------- 0 2.0 5.0 6 23
r 0.112248 6 7 tcp 1040 ------- 0 1.0 4.0 6 13
+ 0.112248 7 4 tcp 1040 ------- 0 1.0 4.0 6 13
- 0.112248 7 4 tcp 1040 ------- 0 1.0 4.0 6 13
r 0.1138 2 6 exp 1000 ------- 0 2.0 5.0 6 23
+ 0.1138 6 7 exp 1000 ------- 0 2.0 5.0 6 23
r 0.11408 7 4 tcp 1040 ------- 0 1.0 4.0 6 13
+ 0.11408 4 7 ack 40 ------- 0 4.0 1.0 6 24
- 0.11408 4 7 ack 40 ------- 0 4.0 1.0 6 24
r 0.115112 4 7 ack 40 ------- 0 4.0 1.0 6 24
+ 0.115112 7 6 ack 40 ------- 0 4.0 1.0 6 24
- 0.115112 7 6 ack 40 ------- 0 4.0 1.0 6 24
r 0.117112 7 6 ack 40 ------- 0 4.0 1.0 5 22
+ 0.117112 6 1 ack 40 ------- 0 4.0 1.0 5 22
- 0.117112 6 1 ack 40 ------- 0 4.0 1.0 5 22
r 0.118144 6 1 ack 40 ------- 0 4.0 1.0 5 22
+ 0.118144 1 6 tcp 1040 ------- 0 1.0 4.0 11 25
- 0.118144 1 6 tcp 1040 ------- 0 1.0 4.0 11 25
+ 0.118144 1 6 tcp 1040 ------- 0 1.0 4.0 12 26
- 0.118568 6 7 tcp 1040 ------- 0 1.0 4.0 8 18
- 0.118976 1 6 tcp 1040 ------- 0 1.0 4.0 12 26
r 0.119976 1 6 tcp 1040 ------- 0 1.0 4.0 11 25
+ 0.119976 6 7 tcp 1040 ------- 0 1.0 4.0 11 25
r 0.120248 6 7 exp 1000 ------- 0 2.0 5.0 4 14
+ 0.120248 7 5 exp 1000 ------- 0 2.0 5.0 4 14
- 0.120248 7 5 exp 1000 ------- 0 2.0 5.0 4 14
r 0.120808 1 6 tcp 1040 ------- 0 1.0 4.0 12 26
+ 0.120808 6 7 tcp 1040 ------- 0 1.0 4.0 12 26
r 0.122048 7 5 exp 1000 ------- 0 2.0 5.0 4 14
r 0.125432 7 6 ack 40 ------- 0 4.0 1.0 6 24
+ 0.125432 6 1 ack 40 ------- 0 4.0 1.0 6 24
- 0.125432 6 1 ack 40 ------- 0 4.0 1.0 6 24
r 0.126464 6 1 ack 40 ------- 0 4.0 1.0 6 24
+ 0.126464 1 6 tcp 1040 ------- 0 1.0 4.0 13 27
- 0.126464 1 6 tcp 1040 ------- 0 1.0 4.0 13 27
+ 0.126464 1 6 tcp 1040 ------- 0 1.0 4.0 14 28
- 0.126888 6 7 exp 1000 ------- 0 2.0 5.0 5 19
- 0.127296 1 6 tcp 1040 ------- 0 1.0 4.0 14 28
+ 0.128 2 6 exp 1000 ------- 0 2.0 5.0 7 29
- 0.128 2 6 exp 1000 ------- 0 2.0 5.0 7 29
r 0.128296 1 6 tcp 1040 ------- 0 1.0 4.0 13 27
+ 0.128296 6 7 tcp 1040 ------- 0 1.0 4.0 13 27
r 0.128568 6 7 tcp 1040 ------- 0 1.0 4.0 7 17
+ 0.128568 7 4 tcp 1040 ------- 0 1.0 4.0 7 17
- 0.128568 7 4 tcp 1040 ------- 0 1.0 4.0 7 17
r 0.129128 1 6 tcp 1040 ------- 0 1.0 4.0 14 28
+ 0.129128 6 7 tcp 1040 ------- 0 1.0 4.0 14 28
r 0.1298 2 6 exp 1000 ------- 0 2.0 5.0 7 29
+ 0.1298 6 7 exp 1000 ------- 0 2.0 5.0 7 29
r 0.1304 7 4 tcp 1040 ------- 0 1.0 4.0 7 17
+ 0.1304 4 7 ack 40 ------- 0 4.0 1.0 7 30
- 0.1304 4 7 ack 40 ------- 0 4.0 1.0 7 30
r 0.131432 4 7 ack 40 ------- 0 4.0 1.0 7 30
+ 0.131432 7 6 ack 40 ------- 0 4.0 1.0 7 30
- 0.131432 7 6 ack 40 ------- 0 4.0 1.0 7 30
- 0.134888 6 7 tcp 1040 ------- 0 1.0 4.0 9 20
r 0.136888 6 7 tcp 1040 ------- 0 1.0 4.0 8 18
+ 0.136888 7 4 tcp 1040 ------- 0 1.0 4.0 8 18
- 0.136888 7 4 tcp 1040 ------- 0 1.0 4.0 8 18
r 0.13872 7 4 tcp 1040 ------- 0 1.0 4.0 8 18
+ 0.13872 4 7 ack 40 ------- 0 4.0 1.0 8 31
- 0.13872 4 7 ack 40 ------- 0 4.0 1.0 8 31
r 0.139752 4 7 ack 40 ------- 0 4.0 1.0 8 31
+ 0.139752 7 6 ack 40 ------- 0 4.0 1.0 8 31
- 0.139752 7 6 ack 40 ------- 0 4.0 1.0 8 31
r 0.141752 7 6 ack 40 ------- 0 4.0 1.0 7 30
+ 0.141752 6 1 ack 40 ------- 0 4.0 1.0 7 30
- 0.141752 6 1 ack 40 ------- 0 4.0 1.0 7 30
r 0.142784 6 1 ack 40 ------- 0 4.0 1.0 7 30
+ 0.142784 1 6 tcp 1040 ------- 0 1.0 4.0 15 32
- 0.142784 1 6 tcp 1040 ------- 0 1.0 4.0 15 32
+ 0.142784 1 6 tcp 1040 ------- 0 1.0 4.0 16 33
- 0.143208 6 7 tcp 1040 ------- 0 1.0 4.0 10 21
- 0.143616 1 6 tcp 1040 ------- 0 1.0 4.0 16 33
+ 0.144 2 6 exp 1000 ------- 0 2.0 5.0 8 34
- 0.144 2 6 exp 1000 ------- 0 2.0 5.0 8 34
r 0.144616 1 6 tcp 1040 ------- 0 1.0 4.0 15 32
+ 0.144616 6 7 tcp 1040 ------- 0 1.0 4.0 15 32
r 0.144888 6 7 exp 1000 ------- 0 2.0 5.0 5 19
+ 0.144888 7 5 exp 1000 ------- 0 2.0 5.0 5 19
- 0.144888 7 5 exp 1000 ------- 0 2.0 5.0 5 19
r 0.145448 1 6 tcp 1040 ------- 0 1.0 4.0 16 33
+ 0.145448 6 7 tcp 1040 ------- 0 1.0 4.0 16 33
r 0.1458 2 6 exp 1000 ------- 0 2.0 5.0 8 34
+ 0.1458 6 7 exp 1000 ------- 0 2.0 5.0 8 34
r 0.146688 7 5 exp 1000 ------- 0 2.0 5.0 5 19
r 0.150072 7 6 ack 40 ------- 0 4.0 1.0 8 31
+ 0.150072 6 1 ack 40 ------- 0 4.0 1.0 8 31
- 0.150072 6 1 ack 40 ------- 0 4.0 1.0 8 31
r 0.151104 6 1 ack 40 ------- 0 4.0 1.0 8 31
+ 0.151104 1 6 tcp 1040 ------- 0 1.0 4.0 17 35
- 0.151104 1 6 tcp 1040 ------- 0 1.0 4.0 17 35
+ 0.151104 1 6 tcp 1040 ------- 0 1.0 4.0 18 36
- 0.151528 6 7 exp 1000 ------- 0 2.0 5.0 6 23
- 0.151936 1 6 tcp 1040 ------- 0 1.0 4.0 18 36
r 0.152936 1 6 tcp 1040 ------- 0 1.0 4.0 17 35
+ 0.152936 6 7 tcp 1040 ------- 0 1.0 4.0 17 35
r 0.153208 6 7 tcp 1040 ------- 0 1.0 4.0 9 20
+ 0.153208 7 4 tcp 1040 ------- 0 1.0 4.0 9 20
- 0.153208 7 4 tcp 1040 ------- 0 1.0 4.0 9 20
r 0.153768 1 6 tcp 1040 ------- 0 1.0 4.0 18 36
+ 0.153768 6 7 tcp 1040 ------- 0 1.0 4.0 18 36
r 0.15504 7 4 tcp 1040 ------- 0 1.0 4.0 9 20
+ 0.15504 4 7 ack 40 ------- 0 4.0 1.0 9 37
- 0.15504 4 7 ack 40 ------- 0 4.0 1.0 9 37
r 0.156072 4 7 ack 40 ------- 0 4.0 1.0 9 37
+ 0.156072 7 6 ack 40 ------- 0 4.0 1.0 9 37
- 0.156072 7 6 ack 40 ------- 0 4.0 1.0 9 37
- 0.159528 6 7 tcp 1040 ------- 0 1.0 4.0 11 25
+ 0.16 2 6 exp 1000 ------- 0 2.0 5.0 9 38
- 0.16 2 6 exp 1000 ------- 0 2.0 5.0 9 38
r 0.161528 6 7 tcp 1040 ------- 0 1.0 4.0 10 21
+ 0.161528 7 4 tcp 1040 ------- 0 1.0 4.0 10 21
- 0.161528 7 4 tcp 1040 ------- 0 1.0 4.0 10 21
r 0.1618 2 6 exp 1000 ------- 0 2.0 5.0 9 38
+ 0.1618 6 7 exp 1000 ------- 0 2.0 5.0 9 38
r 0.16336 7 4 tcp 1040 ------- 0 1.0 4.0 10 21
+ 0.16336 4 7 ack 40 ------- 0 4.0 1.0 10 39
- 0.16336 4 7 ack 40 ------- 0 4.0 1.0 10 39
r 0.164392 4 7 ack 40 ------- 0 4.0 1.0 10 39
+ 0.164392 7 6 ack 40 ------- 0 4.0 1.0 10 39
- 0.164392 7 6 ack 40 ------- 0 4.0 1.0 10 39
r 0.166392 7 6 ack 40 ------- 0 4.0 1.0 9 37
+ 0.166392 6 1 ack 40 ------- 0 4.0 1.0 9 37
- 0.166392 6 1 ack 40 ------- 0 4.0 1.0 9 37
r 0.167424 6 1 ack 40 ------- 0 4.0 1.0 9 37
+ 0.167424 1 6 tcp 1040 ------- 0 1.0 4.0 19 40
- 0.167424 1 6 tcp 1040 ------- 0 1.0 4.0 19 40
+ 0.167424 1 6 tcp 1040 ------- 0 1.0 4.0 20 41
- 0.167848 6 7 tcp 1040 ------- 0 1.0 4.0 12 26
- 0.168256 1 6 tcp 1040 ------- 0 1.0 4.0 20 41
r 0.169256 1 6 tcp 1040 ------- 0 1.0 4.0 19 40
+ 0.169256 6 7 tcp 1040 ------- 0 1.0 4.0 19 40
r 0.169528 6 7 exp 1000 ------- 0 2.0 5.0 6 23
+ 0.169528 7 5 exp 1000 ------- 0 2.0 5.0 6 23
- 0.169528 7 5 exp 1000 ------- 0 2.0 5.0 6 23
r 0.170088 1 6 tcp 1040 ------- 0 1.0 4.0 20 41
+ 0.170088 6 7 tcp 1040 ------- 0 1.0 4.0 20 41
r 0.171328 7 5 exp 1000 ------- 0 2.0 5.0 6 23
r 0.174712 7 6 ack 40 ------- 0 4.0 1.0 10 39
+ 0.174712 6 1 ack 40 ------- 0 4.0 1.0 10 39
- 0.174712 6 1 ack 40 ------- 0 4.0 1.0 10 39
r 0.175744 6 1 ack 40 ------- 0 4.0 1.0 10 39
+ 0.175744 1 6 tcp 1040 ------- 0 1.0 4.0 21 42
- 0.175744 1 6 tcp 1040 ------- 0 1.0 4.0 21 42
+ 0.175744 1 6 tcp 1040 ------- 0 1.0 4.0 22 43
+ 0.176 2 6 exp 1000 ------- 0 2.0 5.0 10 44
- 0.176 2 6 exp 1000 ------- 0 2.0 5.0 10 44
- 0.176168 6 7 tcp 1040 ------- 0 1.0 4.0 13 27
- 0.176576 1 6 tcp 1040 ------- 0 1.0 4.0 22 43
r 0.177576 1 6 tcp 1040 ------- 0 1.0 4.0 21 42
+ 0.177576 6 7 tcp 1040 ------- 0 1.0 4.0 21 42
r 0.1778 2 6 exp 1000 ------- 0 2.0 5.0 10 44
+ 0.1778 6 7 exp 1000 ------- 0 2.0 5.0 10 44
r 0.177848 6 7 tcp 1040 ------- 0 1.0 4.0 11 25
+ 0.177848 7 4 tcp 1040 ------- 0 1.0 4.0 11 25
- 0.177848 7 4 tcp 1040 ------- 0 1.0 4.0 11 25
r 0.178408 1 6 tcp 1040 ------- 0 1.0 4.0 22 43
+ 0.178408 6 7 tcp 1040 ------- 0 1.0 4.0 22 43
r 0.17968 7 4 tcp 1040 ------- 0 1.0 4.0 11 25
+ 0.17968 4 7 ack 40 ------- 0 4.0 1.0 11 45
- 0.17968 4 7 ack 40 ------- 0 4.0 1.0 11 45
r 0.180712 4 7 ack 40 ------- 0 4.0 1.0 11 45
+ 0.180712 7 6 ack 40 ------- 0 4.0 1.0 11 45
- 0.180712 7 6 ack 40 ------- 0 4.0 1.0 11 45
- 0.184488 6 7 tcp 1040 ------- 0 1.0 4.0 14 28
r 0.186168 6 7 tcp 1040 ------- 0 1.0 4.0 12 26
+ 0.186168 7 4 tcp 1040 ------- 0 1.0 4.0 12 26
- 0.186168 7 4 tcp 1040 ------- 0 1.0 4.0 12 26
r 0.188 7 4 tcp 1040 ------- 0 1.0 4.0 12 26
+ 0.188 4 7 ack 40 ------- 0 4.0 1.0 12 46
- 0.188 4 7 ack 40 ------- 0 4.0 1.0 12 46
r 0.189032 4 7 ack 40 ------- 0 4.0 1.0 12 46
+ 0.189032 7 6 ack 40 ------- 0 4.0 1.0 12 46
- 0.189032 7 6 ack 40 ------- 0 4.0 1.0 12 46
r 0.191032 7 6 ack 40 ------- 0 4.0 1.0 11 45
+ 0.191032 6 1 ack 40 ------- 0 4.0 1.0 11 45
- 0.191032 6 1 ack 40 ------- 0 4.0 1.0 11 45
+ 0.192 2 6 exp 1000 ------- 0 2.0 5.0 11 47
- 0.192 2 6 exp 1000 ------- 0 2.0 5.0 11 47
r 0.192064 6 1 ack 40 ------- 0 4.0 1.0 11 45
+ 0.192064 1 6 tcp 1040 ------- 0 1.0 4.0 23 48
- 0.192064 1 6 tcp 1040 ------- 0 1.0 4.0 23 48
+ 0.192064 1 6 tcp 1040 ------- 0 1.0 4.0 24 49
- 0.192808 6 7 exp 1000 ------- 0 2.0 5.0 7 29
- 0.192896 1 6 tcp 1040 ------- 0 1.0 4.0 24 49
r 0.1938 2 6 exp 1000 ------- 0 2.0 5.0 11 47
+ 0.1938 6 7 exp 1000 ------- 0 2.0 5.0 11 47
r 0.193896 1 6 tcp 1040 ------- 0 1.0 4.0 23 48
+ 0.193896 6 7 tcp 1040 ------- 0 1.0 4.0 23 48
r 0.194488 6 7 tcp 1040 ------- 0 1.0 4.0 13 27
+ 0.194488 7 4 tcp 1040 ------- 0 1.0 4.0 13 27
- 0.194488 7 4 tcp 1040 ------- 0 1.0 4.0 13 27
r 0.194728 1 6 tcp 1040 ------- 0 1.0 4.0 24 49
+ 0.194728 6 7 tcp 1040 ------- 0 1.0 4.0 24 49
r 0.19632 7 4 tcp 1040 ------- 0 1.0 4.0 13 27
+ 0.19632 4 7 ack 40 ------- 0 4.0 1.0 13 50
- 0.19632 4 7 ack 40 ------- 0 4.0 1.0 13 50
r 0.197352 4 7 ack 40 ------- 0 4.0 1.0 13 50
+ 0.197352 7 6 ack 40 ------- 0 4.0 1.0 13 50
- 0.197352 7 6 ack 40 ------- 0 4.0 1.0 13 50
r 0.199352 7 6 ack 40 ------- 0 4.0 1.0 12 46
+ 0.199352 6 1 ack 40 ------- 0 4.0 1.0 12 46
- 0.199352 6 1 ack 40 ------- 0 4.0 1.0 12 46
r 0.200384 6 1 ack 40 ------- 0 4.0 1.0 12 46
+ 0.200384 1 6 tcp 1040 ------- 0 1.0 4.0 25 51
- 0.200384 1 6 tcp 1040 ------- 0 1.0 4.0 25 51
+ 0.200384 1 6 tcp 1040 ------- 0 1.0 4.0 26 52
- 0.200808 6 7 tcp 1040 ------- 0 1.0 4.0 15 32
- 0.201216 1 6 tcp 1040 ------- 0 1.0 4.0 26 52
r 0.202216 1 6 tcp 1040 ------- 0 1.0 4.0 25 51
+ 0.202216 6 7 tcp 1040 ------- 0 1.0 4.0 25 51
r 0.202808 6 7 tcp 1040 ------- 0 1.0 4.0 14 28
+ 0.202808 7 4 tcp 1040 ------- 0 1.0 4.0 14 28
- 0.202808 7 4 tcp 1040 ------- 0 1.0 4.0 14 28
r 0.203048 1 6 tcp 1040 ------- 0 1.0 4.0 26 52
+ 0.203048 6 7 tcp 1040 ------- 0 1.0 4.0 26 52
r 0.20464 7 4 tcp 1040 ------- 0 1.0 4.0 14 28
+ 0.20464 4 7 ack 40 ------- 0 4.0 1.0 14 53
- 0.20464 4 7 ack 40 ------- 0 4.0 1.0 14 53
r 0.205672 4 7 ack 40 ------- 0 4.0 1.0 14 53
+ 0.205672 7 6 ack 40 ------- 0 4.0 1.0 14 53
- 0.205672 7 6 ack 40 ------- 0 4.0 1.0 14 53
r 0.207672 7 6 ack 40 ------- 0 4.0 1.0 13 50
+ 0.207672 6 1 ack 40 ------- 0 4.0 1.0 13 50
- 0.207672 6 1 ack 40 ------- 0 4.0 1.0 13 50
+ 0.208 2 6 exp 1000 ------- 0 2.0 5.0 12 54
- 0.208 2 6 exp 1000 ------- 0 2.0 5.0 12 54
r 0.208704 6 1 ack 40 ------- 0 4.0 1.0 13 50
+ 0.208704 1 6 tcp 1040 ------- 0 1.0 4.0 27 55
- 0.208704 1 6 tcp 1040 ------- 0 1.0 4.0 27 55
+ 0.208704 1 6 tcp 1040 ------- 0 1.0 4.0 28 56
- 0.209128 6 7 tcp 1040 ------- 0 1.0 4.0 16 33
- 0.209536 1 6 tcp 1040 ------- 0 1.0 4.0 28 56
r 0.2098 2 6 exp 1000 ------- 0 2.0 5.0 12 54
+ 0.2098 6 7 exp 1000 ------- 0 2.0 5.0 12 54
r 0.210536 1 6 tcp 1040 ------- 0 1.0 4.0 27 55
+ 0.210536 6 7 tcp 1040 ------- 0 1.0 4.0 27 55
r 0.210808 6 7 exp 1000 ------- 0 2.0 5.0 7 29
+ 0.210808 7 5 exp 1000 ------- 0 2.0 5.0 7 29
- 0.210808 7 5 exp 1000 ------- 0 2.0 5.0 7 29
r 0.211368 1 6 tcp 1040 ------- 0 1.0 4.0 28 56
+ 0.211368 6 7 tcp 1040 ------- 0 1.0 4.0 28 56
r 0.212608 7 5 exp 1000 ------- 0 2.0 5.0 7 29
r 0.215992 7 6 ack 40 ------- 0 4.0 1.0 14 53
+ 0.215992 6 1 ack 40 ------- 0 4.0 1.0 14 53
- 0.215992 6 1 ack 40 ------- 0 4.0 1.0 14 53
r 0.217024 6 1 ack 40 ------- 0 4.0 1.0 14 53
+ 0.217024 1 6 tcp 1040 ------- 0 1.0 4.0 29 57
- 0.217024 1 6 tcp 1040 ------- 0 1.0 4.0 29 57
+ 0.217024 1 6 tcp 1040 ------- 0 1.0 4.0 30 58
- 0.217448 6 7 exp 1000 ------- 0 2.0 5.0 8 34
- 0.217856 1 6 tcp 1040 ------- 0 1.0 4.0 30 58
r 0.218856 1 6 tcp 1040 ------- 0 1.0 4.0 29 57
+ 0.218856 6 7 tcp 1040 ------- 0 1.0 4.0 29 57
r 0.219128 6 7 tcp 1040 ------- 0 1.0 4.0 15 32
+ 0.219128 7 4 tcp 1040 ------- 0 1.0 4.0 15 32
- 0.219128 7 4 tcp 1040 ------- 0 1.0 4.0 15 32
r 0.219688 1 6 tcp 1040 ------- 0 1.0 4.0 30 58
+ 0.219688 6 7 tcp 1040 ------- 0 1.0 4.0 30 58
r 0.22096 7 4 tcp 1040 ------- 0 1.0 4.0 15 32
+ 0.22096 4 7 ack 40 ------- 0 4.0 1.0 15 59
- 0.22096 4 7 ack 40 ------- 0 4.0 1.0 15 59
r 0.221992 4 7 ack 40 ------- 0 4.0 1.0 15 59
+ 0.221992 7 6 ack 40 ------- 0 4.0 1.0 15 59
- 0.221992 7 6 ack 40 ------- 0 4.0 1.0 15 59
+ 0.224 2 6 exp 1000 ------- 0 2.0 5.0 13 60
- 0.224 2 6 exp 1000 ------- 0 2.0 5.0 13 60
- 0.225448 6 7 tcp 1040 ------- 0 1.0 4.0 17 35
r 0.2258 2 6 exp 1000 ------- 0 2.0 5.0 13 60
+ 0.2258 6 7 exp 1000 ------- 0 2.0 5.0 13 60
r 0.227448 6 7 tcp 1040 ------- 0 1.0 4.0 16 33
+ 0.227448 7 4 tcp 1040 ------- 0 1.0 4.0 16 33
- 0.227448 7 4 tcp 1040 ------- 0 1.0 4.0 16 33
r 0.22928 7 4 tcp 1040 ------- 0 1.0 4.0 16 33
+ 0.22928 4 7 ack 40 ------- 0 4.0 1.0 16 61
- 0.22928 4 7 ack 40 ------- 0 4.0 1.0 16 61
r 0.230312 4 7 ack 40 ------- 0 4.0 1.0 16 61
+ 0.230312 7 6 ack 40 ------- 0 4.0 1.0 16 61
- 0.230312 7 6 ack 40 ------- 0 4.0 1.0 16 61
r 0.232312 7 6 ack 40 ------- 0 4.0 1.0 15 59
+ 0.232312 6 1 ack 40 ------- 0 4.0 1.0 15 59
- 0.232312 6 1 ack 40 ------- 0 4.0 1.0 15 59
r 0.233344 6 1 ack 40 ------- 0 4.0 1.0 15 59
+ 0.233344 1 6 tcp 1040 ------- 0 1.0 4.0 31 62
- 0.233344 1 6 tcp 1040 ------- 0 1.0 4.0 31 62
+ 0.233344 1 6 tcp 1040 ------- 0 1.0 4.0 32 63
- 0.233768 6 7 tcp 1040 ------- 0 1.0 4.0 18 36
- 0.234176 1 6 tcp 1040 ------- 0 1.0 4.0 32 63
r 0.235176 1 6 tcp 1040 ------- 0 1.0 4.0 31 62
+ 0.235176 6 7 tcp 1040 ------- 0 1.0 4.0 31 62
r 0.235448 6 7 exp 1000 ------- 0 2.0 5.0 8 34
+ 0.235448 7 5 exp 1000 ------- 0 2.0 5.0 8 34
- 0.235448 7 5 exp 1000 ------- 0 2.0 5.0 8 34
r 0.236008 1 6 tcp 1040 ------- 0 1.0 4.0 32 63
+ 0.236008 6 7 tcp 1040 ------- 0 1.0 4.0 32 63
r 0.237248 7 5 exp 1000 ------- 0 2.0 5.0 8 34
+ 0.24 2 6 exp 1000 ------- 0 2.0 5.0 14 64
- 0.24 2 6 exp 1000 ------- 0 2.0 5.0 14 64
r 0.240632 7 6 ack 40 ------- 0 4.0 1.0 16 61
+ 0.240632 6 1 ack 40 ------- 0 4.0 1.0 16 61
- 0.240632 6 1 ack 40 ------- 0 4.0 1.0 16 61
r 0.241664 6 1 ack 40 ------- 0 4.0 1.0 16 61
+ 0.241664 1 6 tcp 1040 ------- 0 1.0 4.0 33 65
- 0.241664 1 6 tcp 1040 ------- 0 1.0 4.0 33 65
+ 0.241664 1 6 tcp 1040 ------- 0 1.0 4.0 34 66
r 0.2418 2 6 exp 1000 ------- 0 2.0 5.0 14 64
+ 0.2418 6 7 exp 1000 ------- 0 2.0 5.0 14 64
- 0.242088 6 7 exp 1000 ------- 0 2.0 5.0 9 38
- 0.242496 1 6 tcp 1040 ------- 0 1.0 4.0 34 66
r 0.243496 1 6 tcp 1040 ------- 0 1.0 4.0 33 65
+ 0.243496 6 7 tcp 1040 ------- 0 1.0 4.0 33 65
r 0.243768 6 7 tcp 1040 ------- 0 1.0 4.0 17 35
+ 0.243768 7 4 tcp 1040 ------- 0 1.0 4.0 17 35
- 0.243768 7 4 tcp 1040 ------- 0 1.0 4.0 17 35
r 0.244328 1 6 tcp 1040 ------- 0 1.0 4.0 34 66
+ 0.244328 6 7 tcp 1040 ------- 0 1.0 4.0 34 66
r 0.2456 7 4 tcp 1040 ------- 0 1.0 4.0 17 35
+ 0.2456 4 7 ack 40 ------- 0 4.0 1.0 17 67
- 0.2456 4 7 ack 40 ------- 0 4.0 1.0 17 67
r 0.246632 4 7 ack 40 ------- 0 4.0 1.0 17 67
+ 0.246632 7 6 ack 40 ------- 0 4.0 1.0 17 67
- 0.246632 7 6 ack 40 ------- 0 4.0 1.0 17 67
- 0.250088 6 7 tcp 1040 ------- 0 1.0 4.0 19 40
r 0.252088 6 7 tcp 1040 ------- 0 1.0 4.0 18 36
+ 0.252088 7 4 tcp 1040 ------- 0 1.0 4.0 18 36
- 0.252088 7 4 tcp 1040 ------- 0 1.0 4.0 18 36
r 0.25392 7 4 tcp 1040 ------- 0 1.0 4.0 18 36
+ 0.25392 4 7 ack 40 ------- 0 4.0 1.0 18 68
- 0.25392 4 7 ack 40 ------- 0 4.0 1.0 18 68
r 0.254952 4 7 ack 40 ------- 0 4.0 1.0 18 68
+ 0.254952 7 6 ack 40 ------- 0 4.0 1.0 18 68
- 0.254952 7 6 ack 40 ------- 0 4.0 1.0 18 68
+ 0.256 2 6 exp 1000 ------- 0 2.0 5.0 15 69
- 0.256 2 6 exp 1000 ------- 0 2.0 5.0 15 69
r 0.256952 7 6 ack 40 ------- 0 4.0 1.0 17 67
+ 0.256952 6 1 ack 40 ------- 0 4.0 1.0 17 67
- 0.256952 6 1 ack 40 ------- 0 4.0 1.0 17 67
r 0.2578 2 6 exp 1000 ------- 0 2.0 5.0 15 69
+ 0.2578 6 7 exp 1000 ------- 0 2.0 5.0 15 69
r 0.257984 6 1 ack 40 ------- 0 4.0 1.0 17 67
+ 0.257984 1 6 tcp 1040 ------- 0 1.0 4.0 35 70
- 0.257984 1 6 tcp 1040 ------- 0 1.0 4.0 35 70
+ 0.257984 1 6 tcp 1040 ------- 0 1.0 4.0 36 71
- 0.258408 6 7 tcp 1040 ------- 0 1.0 4.0 20 41
- 0.258816 1 6 tcp 1040 ------- 0 1.0 4.0 36 71
r 0.259816 1 6 tcp 1040 ------- 0 1.0 4.0 35 70
+ 0.259816 6 7 tcp 1040 ------- 0 1.0 4.0 35 70
r 0.260088 6 7 exp 1000 ------- 0 2.0 5.0 9 38
+ 0.260088 7 5 exp 1000 ------- 0 2.0 5.0 9 38
- 0.260088 7 5 exp 1000 ------- 0 2.0 5.0 9 38
r 0.260648 1 6 tcp 1040 ------- 0 1.0 4.0 36 71
+ 0.260648 6 7 tcp 1040 ------- 0 1.0 4.0 36 71
r 0.261888 7 5 exp 1000 ------- 0 2.0 5.0 9 38
r 0.265272 7 6 ack 40 ------- 0 4.0 1.0 18 68
+ 0.265272 6 1 ack 40 ------- 0 4.0 1.0 18 68
- 0.265272 6 1 ack 40 ------- 0 4.0 1.0 18 68
r 0.266304 6 1 ack 40 ------- 0 4.0 1.0 18 68
+ 0.266304 1 6 tcp 1040 ------- 0 1.0 4.0 37 72
- 0.266304 1 6 tcp 1040 ------- 0 1.0 4.0 37 72
+ 0.266304 1 6 tcp 1040 ------- 0 1.0 4.0 38 73
- 0.266728 6 7 tcp 1040 ------- 0 1.0 4.0 21 42
- 0.267136 1 6 tcp 1040 ------- 0 1.0 4.0 38 73
r 0.268136 1 6 tcp 1040 ------- 0 1.0 4.0 37 72
+ 0.268136 6 7 tcp 1040 ------- 0 1.0 4.0 37 72
r 0.268408 6 7 tcp 1040 ------- 0 1.0 4.0 19 40
+ 0.268408 7 4 tcp 1040 ------- 0 1.0 4.0 19 40
- 0.268408 7 4 tcp 1040 ------- 0 1.0 4.0 19 40
r 0.268968 1 6 tcp 1040 ------- 0 1.0 4.0 38 73
+ 0.268968 6 7 tcp 1040 ------- 0 1.0 4.0 38 73
r 0.27024 7 4 tcp 1040 ------- 0 1.0 4.0 19 40
+ 0.27024 4 7 ack 40 ------- 0 4.0 1.0 19 74
- 0.27024 4 7 ack 40 ------- 0 4.0 1.0 19 74
r 0.271272 4 7 ack 40 ------- 0 4.0 1.0 19 74
+ 0.271272 7 6 ack 40 ------- 0 4.0 1.0 19 74
- 0.271272 7 6 ack 40 ------- 0 4.0 1.0 19 74
+ 0.272 2 6 exp 1000 ------- 0 2.0 5.0 16 75
- 0.272 2 6 exp 1000 ------- 0 2.0 5.0 16 75
r 0.2738 2 6 exp 1000 ------- 0 2.0 5.0 16 75
+ 0.2738 6 7 exp 1000 ------- 0 2.0 5.0 16 75
- 0.275048 6 7 exp 1000 ------- 0 2.0 5.0 10 44
r 0.276728 6 7 tcp 1040 ------- 0 1.0 4.0 20 41
+ 0.276728 7 4 tcp 1040 ------- 0 1.0 4.0 20 41
- 0.276728 7 4 tcp 1040 ------- 0 1.0 4.0 20 41
r 0.27856 7 4 tcp 1040 ------- 0 1.0 4.0 20 41
+ 0.27856 4 7 ack 40 ------- 0 4.0 1.0 20 76
- 0.27856 4 7 ack 40 ------- 0 4.0 1.0 20 76
r 0.279592 4 7 ack 40 ------- 0 4.0 1.0 20 76
+ 0.279592 7 6 ack 40 ------- 0 4.0 1.0 20 76
- 0.279592 7 6 ack 40 ------- 0 4.0 1.0 20 76
r 0.281592 7 6 ack 40 ------- 0 4.0 1.0 19 74
+ 0.281592 6 1 ack 40 ------- 0 4.0 1.0 19 74
- 0.281592 6 1 ack 40 ------- 0 4.0 1.0 19 74
r 0.282624 6 1 ack 40 ------- 0 4.0 1.0 19 74
+ 0.282624 1 6 tcp 1040 ------- 0 1.0 4.0 39 77
- 0.282624 1 6 tcp 1040 ------- 0 1.0 4.0 39 77
- 0.283048 6 7 tcp 1040 ------- 0 1.0 4.0 22 43
r 0.284456 1 6 tcp 1040 ------- 0 1.0 4.0 39 77
+ 0.284456 6 7 tcp 1040 ------- 0 1.0 4.0 39 77
r 0.285048 6 7 tcp 1040 ------- 0 1.0 4.0 21 42
+ 0.285048 7 4 tcp 1040 ------- 0 1.0 4.0 21 42
- 0.285048 7 4 tcp 1040 ------- 0 1.0 4.0 21 42
r 0.28688 7 4 tcp 1040 ------- 0 1.0 4.0 21 42
+ 0.28688 4 7 ack 40 ------- 0 4.0 1.0 21 78
- 0.28688 4 7 ack 40 ------- 0 4.0 1.0 21 78
r 0.287912 4 7 ack 40 ------- 0 4.0 1.0 21 78
+ 0.287912 7 6 ack 40 ------- 0 4.0 1.0 21 78
- 0.287912 7 6 ack 40 ------- 0 4.0 1.0 21 78
+ 0.288 2 6 exp 1000 ------- 0 2.0 5.0 17 79
- 0.288 2 6 exp 1000 ------- 0 2.0 5.0 17 79
r 0.2898 2 6 exp 1000 ------- 0 2.0 5.0 17 79
+ 0.2898 6 7 exp 1000 ------- 0 2.0 5.0 17 79
r 0.289912 7 6 ack 40 ------- 0 4.0 1.0 20 76
+ 0.289912 6 1 ack 40 ------- 0 4.0 1.0 20 76
- 0.289912 6 1 ack 40 ------- 0 4.0 1.0 20 76
r 0.290944 6 1 ack 40 ------- 0 4.0 1.0 20 76
+ 0.290944 1 6 tcp 1040 ------- 0 1.0 4.0 40 80
- 0.290944 1 6 tcp 1040 ------- 0 1.0 4.0 40 80
- 0.291368 6 7 exp 1000 ------- 0 2.0 5.0 11 47
r 0.292776 1 6 tcp 1040 ------- 0 1.0 4.0 40 80
+ 0.292776 6 7 tcp 1040 ------- 0 1.0 4.0 40 80
r 0.293048 6 7 exp 1000 ------- 0 2.0 5.0 10 44
+ 0.293048 7 5 exp 1000 ------- 0 2.0 5.0 10 44
- 0.293048 7 5 exp 1000 ------- 0 2.0 5.0 10 44
r 0.294848 7 5 exp 1000 ------- 0 2.0 5.0 10 44
r 0.298232 7 6 ack 40 ------- 0 4.0 1.0 21 78
+ 0.298232 6 1 ack 40 ------- 0 4.0 1.0 21 78
- 0.298232 6 1 ack 40 ------- 0 4.0 1.0 21 78
r 0.299264 6 1 ack 40 ------- 0 4.0 1.0 21 78
+ 0.299264 1 6 tcp 1040 ------- 0 1.0 4.0 41 81
- 0.299264 1 6 tcp 1040 ------- 0 1.0 4.0 41 81
- 0.299368 6 7 tcp 1040 ------- 0 1.0 4.0 23 48
r 0.301096 1 6 tcp 1040 ------- 0 1.0 4.0 41 81
+ 0.301096 6 7 tcp 1040 ------- 0 1.0 4.0 41 81
r 0.301368 6 7 tcp 1040 ------- 0 1.0 4.0 22 43
+ 0.301368 7 4 tcp 1040 ------- 0 1.0 4.0 22 43
- 0.301368 7 4 tcp 1040 ------- 0 1.0 4.0 22 43
r 0.3032 7 4 tcp 1040 ------- 0 1.0 4.0 22 43
+ 0.3032 4 7 ack 40 ------- 0 4.0 1.0 22 82
- 0.3032 4 7 ack 40 ------- 0 4.0 1.0 22 82
+ 0.304 2 6 exp 1000 ------- 0 2.0 5.0 18 83
- 0.304 2 6 exp 1000 ------- 0 2.0 5.0 18 83
r 0.304232 4 7 ack 40 ------- 0 4.0 1.0 22 82
+ 0.304232 7 6 ack 40 ------- 0 4.0 1.0 22 82
- 0.304232 7 6 ack 40 ------- 0 4.0 1.0 22 82
r 0.3058 2 6 exp 1000 ------- 0 2.0 5.0 18 83
+ 0.3058 6 7 exp 1000 ------- 0 2.0 5.0 18 83
- 0.307688 6 7 tcp 1040 ------- 0 1.0 4.0 24 49
r 0.309368 6 7 exp 1000 ------- 0 2.0 5.0 11 47
+ 0.309368 7 5 exp 1000 ------- 0 2.0 5.0 11 47
- 0.309368 7 5 exp 1000 ------- 0 2.0 5.0 11 47
r 0.311168 7 5 exp 1000 ------- 0 2.0 5.0 11 47
r 0.314552 7 6 ack 40 ------- 0 4.0 1.0 22 82
+ 0.314552 6 1 ack 40 ------- 0 4.0 1.0 22 82
- 0.314552 6 1 ack 40 ------- 0 4.0 1.0 22 82
r 0.315584 6 1 ack 40 ------- 0 4.0 1.0 22 82
+ 0.315584 1 6 tcp 1040 ------- 0 1.0 4.0 42 84
- 0.315584 1 6 tcp 1040 ------- 0 1.0 4.0 42 84
- 0.316008 6 7 tcp 1040 ------- 0 1.0 4.0 25 51
r 0.317416 1 6 tcp 1040 ------- 0 1.0 4.0 42 84
+ 0.317416 6 7 tcp 1040 ------- 0 1.0 4.0 42 84
r 0.317688 6 7 tcp 1040 ------- 0 1.0 4.0 23 48
+ 0.317688 7 4 tcp 1040 ------- 0 1.0 4.0 23 48
- 0.317688 7 4 tcp 1040 ------- 0 1.0 4.0 23 48
r 0.31952 7 4 tcp 1040 ------- 0 1.0 4.0 23 48
+ 0.31952 4 7 ack 40 ------- 0 4.0 1.0 23 85
- 0.31952 4 7 ack 40 ------- 0 4.0 1.0 23 85
+ 0.32 2 6 exp 1000 ------- 0 2.0 5.0 19 86
- 0.32 2 6 exp 1000 ------- 0 2.0 5.0 19 86
r 0.320552 4 7 ack 40 ------- 0 4.0 1.0 23 85
+ 0.320552 7 6 ack 40 ------- 0 4.0 1.0 23 85
- 0.320552 7 6 ack 40 ------- 0 4.0 1.0 23 85
r 0.3218 2 6 exp 1000 ------- 0 2.0 5.0 19 86
+ 0.3218 6 7 exp 1000 ------- 0 2.0 5.0 19 86
- 0.324328 6 7 tcp 1040 ------- 0 1.0 4.0 26 52
r 0.326008 6 7 tcp 1040 ------- 0 1.0 4.0 24 49