+ 0 2 0 tcp 1000 ------- 0 2.0 3.0 0 0
- 0 2 0 tcp 1000 ------- 0 2.0 3.0 0 0
r 0.0018 2 0 tcp 1000 ------- 0 2.0 3.0 0 0
+ 0.0018 0 1 tcp 1000 ------- 0 2.0 3.0 0 0
- 0.0018 0 1 tcp 1000 ------- 0 2.0 3.0 0 0
r 0.0298 0 1 tcp 1000 ------- 0 2.0 3.0 0 0
+ 0.0298 1 3 tcp 1000 ------- 0 2.0 3.0 0 0
- 0.0298 1 3 tcp 1000 ------- 0 2.0 3.0 0 0
r 0.0316 1 3 tcp 1000 ------- 0 2.0 3.0 0 0
+ 0.0316 3 1 ack 40 ------- 0 3.0 2.0 0 1
- 0.0316 3 1 ack 40 ------- 0 3.0 2.0 0 1
r 0.032632 3 1 ack 40 ------- 0 3.0 2.0 0 1
+ 0.032632 1 0 ack 40 ------- 0 3.0 2.0 0 1
- 0.032632 1 0 ack 40 ------- 0 3.0 2.0 0 1
r 0.052952 1 0 ack 40 ------- 0 3.0 2.0 0 1
+ 0.052952 0 2 ack 40 ------- 0 3.0 2.0 0 1
- 0.052952 0 2 ack 40 ------- 0 3.0 2.0 0 1
r 0.053984 0 2 ack 40 ------- 0 3.0 2.0 0 1
+ 0.053984 2 0 tcp 1000 ------- 0 2.0 3.0 1 2
- 0.053984 2 0 tcp 1000 ------- 0 2.0 3.0 1 2
r 0.055784 2 0 tcp 1000 ------- 0 2.0 3.0 1 2
+ 0.055784 0 1 tcp 1000 ------- 0 2.0 3.0 1 2
- 0.055784 0 1 tcp 1000 ------- 0 2.0 3.0 1 2
r 0.083784 0 1 tcp 1000 ------- 0 2.0 3.0 1 2
+ 0.083784 1 3 tcp 1000 ------- 0 2.0 3.0 1 2
- 0.083784 1 3 tcp 1000 ------- 0 2.0 3.0 1 2
r 0.085584 1 3 tcp 1000 ------- 0 2.0 3.0 1 2
+ 0.085584 3 1 ack 40 ------- 0 3.0 2.0 1 3
- 0.085584 3 1 ack 40 ------- 0 3.0 2.0 1 3
r 0.086616 3 1 ack 40 ------- 0 3.0 2.0 1 3
+ 0.086616 1 0 ack 40 ------- 0 3.0 2.0 1 3
- 0.086616 1 0 ack 40 ------- 0 3.0 2.0 1 3
r 0.106936 1 0 ack 40 ------- 0 3.0 2.0 1 3
+ 0.106936 0 2 ack 40 ------- 0 3.0 2.0 1 3
- 0.106936 0 2 ack 40 ------- 0 3.0 2.0 1 3
r 0.107968 0 2 ack 40 ------- 0 3.0 2.0 1 3
+ 0.107968 2 0 tcp 1000 ------- 0 2.0 3.0 2 4
- 0.107968 2 0 tcp 1000 ------- 0 2.0 3.0 2 4
+ 0.107968 2 0 tcp 1000 ------- 0 2.0 3.0 3 5
+ 0.107968 2 0 tcp 1000 ------- 0 2.0 3.0 4 6
- 0.108768 2 0 tcp 1000 ------- 0 2.0 3.0 3 5
- 0.109568 2 0 tcp 1000 ------- 0 2.0 3.0 4 6
r 0.109768 2 0 tcp 1000 ------- 0 2.0 3.0 2 4
+ 0.109768 0 1 tcp 1000 ------- 0 2.0 3.0 2 4
- 0.109768 0 1 tcp 1000 ------- 0 2.0 3.0 2 4
r 0.110568 2 0 tcp 1000 ------- 0 2.0 3.0 3 5
+ 0.110568 0 1 tcp 1000 ------- 0 2.0 3.0 3 5
r 0.111368 2 0 tcp 1000 ------- 0 2.0 3.0 4 6
+ 0.111368 0 1 tcp 1000 ------- 0 2.0 3.0 4 6
- 0.117768 0 1 tcp 1000 ------- 0 2.0 3.0 3 5
- 0.125768 0 1 tcp 1000 ------- 0 2.0 3.0 4 6
r 0.137768 0 1 tcp 1000 ------- 0 2.0 3.0 2 4
+ 0.137768 1 3 tcp 1000 ------- 0 2.0 3.0 2 4
- 0.137768 1 3 tcp 1000 ------- 0 2.0 3.0 2 4
r 0.139568 1 3 tcp 1000 ------- 0 2.0 3.0 2 4
+ 0.139568 3 1 ack 40 ------- 0 3.0 2.0 2 7
- 0.139568 3 1 ack 40 ------- 0 3.0 2.0 2 7
r 0.1406 3 1 ack 40 ------- 0 3.0 2.0 2 7
+ 0.1406 1 0 ack 40 ------- 0 3.0 2.0 2 7
- 0.1406 1 0 ack 40 ------- 0 3.0 2.0 2 7
r 0.145768 0 1 tcp 1000 ------- 0 2.0 3.0 3 5
+ 0.145768 1 3 tcp 1000 ------- 0 2.0 3.0 3 5
- 0.145768 1 3 tcp 1000 ------- 0 2.0 3.0 3 5
r 0.147568 1 3 tcp 1000 ------- 0 2.0 3.0 3 5
+ 0.147568 3 1 ack 40 ------- 0 3.0 2.0 3 8
- 0.147568 3 1 ack 40 ------- 0 3.0 2.0 3 8
r 0.1486 3 1 ack 40 ------- 0 3.0 2.0 3 8
+ 0.1486 1 0 ack 40 ------- 0 3.0 2.0 3 8
- 0.1486 1 0 ack 40 ------- 0 3.0 2.0 3 8
r 0.153768 0 1 tcp 1000 ------- 0 2.0 3.0 4 6
+ 0.153768 1 3 tcp 1000 ------- 0 2.0 3.0 4 6
- 0.153768 1 3 tcp 1000 ------- 0 2.0 3.0 4 6
r 0.155568 1 3 tcp 1000 ------- 0 2.0 3.0 4 6
+ 0.155568 3 1 ack 40 ------- 0 3.0 2.0 4 9
- 0.155568 3 1 ack 40 ------- 0 3.0 2.0 4 9
r 0.1566 3 1 ack 40 ------- 0 3.0 2.0 4 9
+ 0.1566 1 0 ack 40 ------- 0 3.0 2.0 4 9
- 0.1566 1 0 ack 40 ------- 0 3.0 2.0 4 9
r 0.16092 1 0 ack 40 ------- 0 3.0 2.0 2 7
+ 0.16092 0 2 ack 40 ------- 0 3.0 2.0 2 7
- 0.16092 0 2 ack 40 ------- 0 3.0 2.0 2 7
r 0.161952 0 2 ack 40 ------- 0 3.0 2.0 2 7
+ 0.161952 2 0 tcp 1000 ------- 0 2.0 3.0 5 10
- 0.161952 2 0 tcp 1000 ------- 0 2.0 3.0 5 10
r 0.163752 2 0 tcp 1000 ------- 0 2.0 3.0 5 10
+ 0.163752 0 1 tcp 1000 ------- 0 2.0 3.0 5 10
- 0.163752 0 1 tcp 1000 ------- 0 2.0 3.0 5 10
r 0.16892 1 0 ack 40 ------- 0 3.0 2.0 3 8
+ 0.16892 0 2 ack 40 ------- 0 3.0 2.0 3 8
- 0.16892 0 2 ack 40 ------- 0 3.0 2.0 3 8
r 0.169952 0 2 ack 40 ------- 0 3.0 2.0 3 8
+ 0.169952 2 0 tcp 1000 ------- 0 2.0 3.0 6 11
- 0.169952 2 0 tcp 1000 ------- 0 2.0 3.0 6 11
r 0.171752 2 0 tcp 1000 ------- 0 2.0 3.0 6 11
+ 0.171752 0 1 tcp 1000 ------- 0 2.0 3.0 6 11
- 0.171752 0 1 tcp 1000 ------- 0 2.0 3.0 6 11
r 0.17692 1 0 ack 40 ------- 0 3.0 2.0 4 9
+ 0.17692 0 2 ack 40 ------- 0 3.0 2.0 4 9
- 0.17692 0 2 ack 40 ------- 0 3.0 2.0 4 9
r 0.177952 0 2 ack 40 ------- 0 3.0 2.0 4 9
+ 0.177952 2 0 tcp 1000 ------- 0 2.0 3.0 7 12
- 0.177952 2 0 tcp 1000 ------- 0 2.0 3.0 7 12
r 0.179752 2 0 tcp 1000 ------- 0 2.0 3.0 7 12
+ 0.179752 0 1 tcp 1000 ------- 0 2.0 3.0 7 12
- 0.179752 0 1 tcp 1000 ------- 0 2.0 3.0 7 12
r 0.191752 0 1 tcp 1000 ------- 0 2.0 3.0 5 10
+ 0.191752 1 3 tcp 1000 ------- 0 2.0 3.0 5 10
- 0.191752 1 3 tcp 1000 ------- 0 2.0 3.0 5 10
r 0.193552 1 3 tcp 1000 ------- 0 2.0 3.0 5 10
+ 0.193552 3 1 ack 40 ------- 0 3.0 2.0 5 13
- 0.193552 3 1 ack 40 ------- 0 3.0 2.0 5 13
r 0.194584 3 1 ack 40 ------- 0 3.0 2.0 5 13
+ 0.194584 1 0 ack 40 ------- 0 3.0 2.0 5 13
- 0.194584 1 0 ack 40 ------- 0 3.0 2.0 5 13
r 0.199752 0 1 tcp 1000 ------- 0 2.0 3.0 6 11
+ 0.199752 1 3 tcp 1000 ------- 0 2.0 3.0 6 11
- 0.199752 1 3 tcp 1000 ------- 0 2.0 3.0 6 11
r 0.201552 1 3 tcp 1000 ------- 0 2.0 3.0 6 11
+ 0.201552 3 1 ack 40 ------- 0 3.0 2.0 6 14
- 0.201552 3 1 ack 40 ------- 0 3.0 2.0 6 14
r 0.202584 3 1 ack 40 ------- 0 3.0 2.0 6 14
+ 0.202584 1 0 ack 40 ------- 0 3.0 2.0 6 14
- 0.202584 1 0 ack 40 ------- 0 3.0 2.0 6 14
r 0.207752 0 1 tcp 1000 ------- 0 2.0 3.0 7 12
+ 0.207752 1 3 tcp 1000 ------- 0 2.0 3.0 7 12
- 0.207752 1 3 tcp 1000 ------- 0 2.0 3.0 7 12
r 0.209552 1 3 tcp 1000 ------- 0 2.0 3.0 7 12
+ 0.209552 3 1 ack 40 ------- 0 3.0 2.0 7 15
- 0.209552 3 1 ack 40 ------- 0 3.0 2.0 7 15
r 0.210584 3 1 ack 40 ------- 0 3.0 2.0 7 15
+ 0.210584 1 0 ack 40 ------- 0 3.0 2.0 7 15
- 0.210584 1 0 ack 40 ------- 0 3.0 2.0 7 15
r 0.214904 1 0 ack 40 ------- 0 3.0 2.0 5 13
+ 0.214904 0 2 ack 40 ------- 0 3.0 2.0 5 13
- 0.214904 0 2 ack 40 ------- 0 3.0 2.0 5 13
r 0.215936 0 2 ack 40 ------- 0 3.0 2.0 5 13
+ 0.215936 2 0 tcp 1000 ------- 0 2.0 3.0 8 16
- 0.215936 2 0 tcp 1000 ------- 0 2.0 3.0 8 16
+ 0.215936 2 0 tcp 1000 ------- 0 2.0 3.0 9 17
- 0.216736 2 0 tcp 1000 ------- 0 2.0 3.0 9 17
r 0.217736 2 0 tcp 1000 ------- 0 2.0 3.0 8 16
+ 0.217736 0 1 tcp 1000 ------- 0 2.0 3.0 8 16
- 0.217736 0 1 tcp 1000 ------- 0 2.0 3.0 8 16
r 0.218536 2 0 tcp 1000 ------- 0 2.0 3.0 9 17
+ 0.218536 0 1 tcp 1000 ------- 0 2.0 3.0 9 17
r 0.222904 1 0 ack 40 ------- 0 3.0 2.0 6 14
+ 0.222904 0 2 ack 40 ------- 0 3.0 2.0 6 14
- 0.222904 0 2 ack 40 ------- 0 3.0 2.0 6 14
r 0.223936 0 2 ack 40 ------- 0 3.0 2.0 6 14
+ 0.223936 2 0 tcp 1000 ------- 0 2.0 3.0 10 18
- 0.223936 2 0 tcp 1000 ------- 0 2.0 3.0 10 18
+ 0.223936 2 0 tcp 1000 ------- 0 2.0 3.0 11 19
- 0.224736 2 0 tcp 1000 ------- 0 2.0 3.0 11 19
- 0.225736 0 1 tcp 1000 ------- 0 2.0 3.0 9 17
r 0.225736 2 0 tcp 1000 ------- 0 2.0 3.0 10 18
+ 0.225736 0 1 tcp 1000 ------- 0 2.0 3.0 10 18
r 0.226536 2 0 tcp 1000 ------- 0 2.0 3.0 11 19
+ 0.226536 0 1 tcp 1000 ------- 0 2.0 3.0 11 19
r 0.230904 1 0 ack 40 ------- 0 3.0 2.0 7 15
+ 0.230904 0 2 ack 40 ------- 0 3.0 2.0 7 15
- 0.230904 0 2 ack 40 ------- 0 3.0 2.0 7 15
r 0.231936 0 2 ack 40 ------- 0 3.0 2.0 7 15
+ 0.231936 2 0 tcp 1000 ------- 0 2.0 3.0 12 20
- 0.231936 2 0 tcp 1000 ------- 0 2.0 3.0 12 20
+ 0.231936 2 0 tcp 1000 ------- 0 2.0 3.0 13 21
- 0.232736 2 0 tcp 1000 ------- 0 2.0 3.0 13 21
- 0.233736 0 1 tcp 1000 ------- 0 2.0 3.0 10 18
r 0.233736 2 0 tcp 1000 ------- 0 2.0 3.0 12 20
+ 0.233736 0 1 tcp 1000 ------- 0 2.0 3.0 12 20
r 0.234536 2 0 tcp 1000 ------- 0 2.0 3.0 13 21
+ 0.234536 0 1 tcp 1000 ------- 0 2.0 3.0 13 21
- 0.241736 0 1 tcp 1000 ------- 0 2.0 3.0 11 19
r 0.245736 0 1 tcp 1000 ------- 0 2.0 3.0 8 16
+ 0.245736 1 3 tcp 1000 ------- 0 2.0 3.0 8 16
- 0.245736 1 3 tcp 1000 ------- 0 2.0 3.0 8 16
r 0.247536 1 3 tcp 1000 ------- 0 2.0 3.0 8 16
+ 0.247536 3 1 ack 40 ------- 0 3.0 2.0 8 22
- 0.247536 3 1 ack 40 ------- 0 3.0 2.0 8 22
r 0.248568 3 1 ack 40 ------- 0 3.0 2.0 8 22
+ 0.248568 1 0 ack 40 ------- 0 3.0 2.0 8 22
- 0.248568 1 0 ack 40 ------- 0 3.0 2.0 8 22
- 0.249736 0 1 tcp 1000 ------- 0 2.0 3.0 12 20
r 0.253736 0 1 tcp 1000 ------- 0 2.0 3.0 9 17
+ 0.253736 1 3 tcp 1000 ------- 0 2.0 3.0 9 17
- 0.253736 1 3 tcp 1000 ------- 0 2.0 3.0 9 17
r 0.255536 1 3 tcp 1000 ------- 0 2.0 3.0 9 17
+ 0.255536 3 1 ack 40 ------- 0 3.0 2.0 9 23
- 0.255536 3 1 ack 40 ------- 0 3.0 2.0 9 23
r 0.256568 3 1 ack 40 ------- 0 3.0 2.0 9 23
+ 0.256568 1 0 ack 40 ------- 0 3.0 2.0 9 23
- 0.256568 1 0 ack 40 ------- 0 3.0 2.0 9 23
- 0.257736 0 1 tcp 1000 ------- 0 2.0 3.0 13 21
r 0.261736 0 1 tcp 1000 ------- 0 2.0 3.0 10 18
+ 0.261736 1 3 tcp 1000 ------- 0 2.0 3.0 10 18
- 0.261736 1 3 tcp 1000 ------- 0 2.0 3.0 10 18
r 0.263536 1 3 tcp 1000 ------- 0 2.0 3.0 10 18
+ 0.263536 3 1 ack 40 ------- 0 3.0 2.0 10 24
- 0.263536 3 1 ack 40 ------- 0 3.0 2.0 10 24
r 0.264568 3 1 ack 40 ------- 0 3.0 2.0 10 24
+ 0.264568 1 0 ack 40 ------- 0 3.0 2.0 10 24
- 0.264568 1 0 ack 40 ------- 0 3.0 2.0 10 24
r 0.268888 1 0 ack 40 ------- 0 3.0 2.0 8 22
+ 0.268888 0 2 ack 40 ------- 0 3.0 2.0 8 22
- 0.268888 0 2 ack 40 ------- 0 3.0 2.0 8 22
r 0.269736 0 1 tcp 1000 ------- 0 2.0 3.0 11 19
+ 0.269736 1 3 tcp 1000 ------- 0 2.0 3.0 11 19
- 0.269736 1 3 tcp 1000 ------- 0 2.0 3.0 11 19
r 0.26992 0 2 ack 40 ------- 0 3.0 2.0 8 22
+ 0.26992 2 0 tcp 1000 ------- 0 2.0 3.0 14 25
- 0.26992 2 0 tcp 1000 ------- 0 2.0 3.0 14 25
r 0.271536 1 3 tcp 1000 ------- 0 2.0 3.0 11 19
+ 0.271536 3 1 ack 40 ------- 0 3.0 2.0 11 26
- 0.271536 3 1 ack 40 ------- 0 3.0 2.0 11 26
r 0.27172 2 0 tcp 1000 ------- 0 2.0 3.0 14 25
+ 0.27172 0 1 tcp 1000 ------- 0 2.0 3.0 14 25
- 0.27172 0 1 tcp 1000 ------- 0 2.0 3.0 14 25
r 0.272568 3 1 ack 40 ------- 0 3.0 2.0 11 26
+ 0.272568 1 0 ack 40 ------- 0 3.0 2.0 11 26
- 0.272568 1 0 ack 40 ------- 0 3.0 2.0 11 26
r 0.276888 1 0 ack 40 ------- 0 3.0 2.0 9 23
+ 0.276888 0 2 ack 40 ------- 0 3.0 2.0 9 23
- 0.276888 0 2 ack 40 ------- 0 3.0 2.0 9 23
r 0.277736 0 1 tcp 1000 ------- 0 2.0 3.0 12 20
+ 0.277736 1 3 tcp 1000 ------- 0 2.0 3.0 12 20
- 0.277736 1 3 tcp 1000 ------- 0 2.0 3.0 12 20
r 0.27792 0 2 ack 40 ------- 0 3.0 2.0 9 23
+ 0.27792 2 0 tcp 1000 ------- 0 2.0 3.0 15 27
- 0.27792 2 0 tcp 1000 ------- 0 2.0 3.0 15 27
r 0.279536 1 3 tcp 1000 ------- 0 2.0 3.0 12 20
+ 0.279536 3 1 ack 40 ------- 0 3.0 2.0 12 28
- 0.279536 3 1 ack 40 ------- 0 3.0 2.0 12 28
r 0.27972 2 0 tcp 1000 ------- 0 2.0 3.0 15 27
+ 0.27972 0 1 tcp 1000 ------- 0 2.0 3.0 15 27
- 0.27972 0 1 tcp 1000 ------- 0 2.0 3.0 15 27
r 0.280568 3 1 ack 40 ------- 0 3.0 2.0 12 28
+ 0.280568 1 0 ack 40 ------- 0 3.0 2.0 12 28
- 0.280568 1 0 ack 40 ------- 0 3.0 2.0 12 28
r 0.284888 1 0 ack 40 ------- 0 3.0 2.0 10 24
+ 0.284888 0 2 ack 40 ------- 0 3.0 2.0 10 24
- 0.284888 0 2 ack 40 ------- 0 3.0 2.0 10 24
r 0.285736 0 1 tcp 1000 ------- 0 2.0 3.0 13 21
+ 0.285736 1 3 tcp 1000 ------- 0 2.0 3.0 13 21
- 0.285736 1 3 tcp 1000 ------- 0 2.0 3.0 13 21
r 0.28592 0 2 ack 40 ------- 0 3.0 2.0 10 24
+ 0.28592 2 0 tcp 1000 ------- 0 2.0 3.0 16 29
- 0.28592 2 0 tcp 1000 ------- 0 2.0 3.0 16 29
r 0.287536 1 3 tcp 1000 ------- 0 2.0 3.0 13 21
+ 0.287536 3 1 ack 40 ------- 0 3.0 2.0 13 30
- 0.287536 3 1 ack 40 ------- 0 3.0 2.0 13 30
r 0.28772 2 0 tcp 1000 ------- 0 2.0 3.0 16 29
+ 0.28772 0 1 tcp 1000 ------- 0 2.0 3.0 16 29
- 0.28772 0 1 tcp 1000 ------- 0 2.0 3.0 16 29
r 0.288568 3 1 ack 40 ------- 0 3.0 2.0 13 30
+ 0.288568 1 0 ack 40 ------- 0 3.0 2.0 13 30
- 0.288568 1 0 ack 40 ------- 0 3.0 2.0 13 30
r 0.292888 1 0 ack 40 ------- 0 3.0 2.0 11 26
+ 0.292888 0 2 ack 40 ------- 0 3.0 2.0 11 26
- 0.292888 0 2 ack 40 ------- 0 3.0 2.0 11 26
r 0.29392 0 2 ack 40 ------- 0 3.0 2.0 11 26
+ 0.29392 2 0 tcp 1000 ------- 0 2.0 3.0 17 31
- 0.29392 2 0 tcp 1000 ------- 0 2.0 3.0 17 31
r 0.29572 2 0 tcp 1000 ------- 0 2.0 3.0 17 31
+ 0.29572 0 1 tcp 1000 ------- 0 2.0 3.0 17 31
- 0.29572 0 1 tcp 1000 ------- 0 2.0 3.0 17 31
r 0.29972 0 1 tcp 1000 ------- 0 2.0 3.0 14 25
+ 0.29972 1 3 tcp 1000 ------- 0 2.0 3.0 14 25
- 0.29972 1 3 tcp 1000 ------- 0 2.0 3.0 14 25
r 0.300888 1 0 ack 40 ------- 0 3.0 2.0 12 28
+ 0.300888 0 2 ack 40 ------- 0 3.0 2.0 12 28
- 0.300888 0 2 ack 40 ------- 0 3.0 2.0 12 28
r 0.30152 1 3 tcp 1000 ------- 0 2.0 3.0 14 25
+ 0.30152 3 1 ack 40 ------- 0 3.0 2.0 14 32
- 0.30152 3 1 ack 40 ------- 0 3.0 2.0 14 32
r 0.30192 0 2 ack 40 ------- 0 3.0 2.0 12 28
+ 0.30192 2 0 tcp 1000 ------- 0 2.0 3.0 18 33
- 0.30192 2 0 tcp 1000 ------- 0 2.0 3.0 18 33
r 0.302552 3 1 ack 40 ------- 0 3.0 2.0 14 32
+ 0.302552 1 0 ack 40 ------- 0 3.0 2.0 14 32
- 0.302552 1 0 ack 40 ------- 0 3.0 2.0 14 32
r 0.30372 2 0 tcp 1000 ------- 0 2.0 3.0 18 33
+ 0.30372 0 1 tcp 1000 ------- 0 2.0 3.0 18 33
- 0.30372 0 1 tcp 1000 ------- 0 2.0 3.0 18 33
r 0.30772 0 1 tcp 1000 ------- 0 2.0 3.0 15 27
+ 0.30772 1 3 tcp 1000 ------- 0 2.0 3.0 15 27
- 0.30772 1 3 tcp 1000 ------- 0 2.0 3.0 15 27
r 0.308888 1 0 ack 40 ------- 0 3.0 2.0 13 30
+ 0.308888 0 2 ack 40 ------- 0 3.0 2.0 13 30
- 0.308888 0 2 ack 40 ------- 0 3.0 2.0 13 30
r 0.30952 1 3 tcp 1000 ------- 0 2.0 3.0 15 27
+ 0.30952 3 1 ack 40 ------- 0 3.0 2.0 15 34
- 0.30952 3 1 ack 40 ------- 0 3.0 2.0 15 34
r 0.30992 0 2 ack 40 ------- 0 3.0 2.0 13 30
+ 0.30992 2 0 tcp 1000 ------- 0 2.0 3.0 19 35
- 0.30992 2 0 tcp 1000 ------- 0 2.0 3.0 19 35
r 0.310552 3 1 ack 40 ------- 0 3.0 2.0 15 34
+ 0.310552 1 0 ack 40 ------- 0 3.0 2.0 15 34
- 0.310552 1 0 ack 40 ------- 0 3.0 2.0 15 34
r 0.31172 2 0 tcp 1000 ------- 0 2.0 3.0 19 35
+ 0.31172 0 1 tcp 1000 ------- 0 2.0 3.0 19 35
- 0.31172 0 1 tcp 1000 ------- 0 2.0 3.0 19 35
r 0.31572 0 1 tcp 1000 ------- 0 2.0 3.0 16 29
+ 0.31572 1 3 tcp 1000 ------- 0 2.0 3.0 16 29
- 0.31572 1 3 tcp 1000 ------- 0 2.0 3.0 16 29
r 0.31752 1 3 tcp 1000 ------- 0 2.0 3.0 16 29
+ 0.31752 3 1 ack 40 ------- 0 3.0 2.0 16 36
- 0.31752 3 1 ack 40 ------- 0 3.0 2.0 16 36
r 0.318552 3 1 ack 40 ------- 0 3.0 2.0 16 36
+ 0.318552 1 0 ack 40 ------- 0 3.0 2.0 16 36
- 0.318552 1 0 ack 40 ------- 0 3.0 2.0 16 36
r 0.322872 1 0 ack 40 ------- 0 3.0 2.0 14 32
+ 0.322872 0 2 ack 40 ------- 0 3.0 2.0 14 32
- 0.322872 0 2 ack 40 ------- 0 3.0 2.0 14 32
r 0.32372 0 1 tcp 1000 ------- 0 2.0 3.0 17 31
+ 0.32372 1 3 tcp 1000 ------- 0 2.0 3.0 17 31
- 0.32372 1 3 tcp 1000 ------- 0 2.0 3.0 17 31
r 0.323904 0 2 ack 40 ------- 0 3.0 2.0 14 32
+ 0.323904 2 0 tcp 1000 ------- 0 2.0 3.0 20 37
- 0.323904 2 0 tcp 1000 ------- 0 2.0 3.0 20 37
+ 0.323904 2 0 tcp 1000 ------- 0 2.0 3.0 21 38
- 0.324704 2 0 tcp 1000 ------- 0 2.0 3.0 21 38
r 0.32552 1 3 tcp 1000 ------- 0 2.0 3.0 17 31
+ 0.32552 3 1 ack 40 ------- 0 3.0 2.0 17 39
- 0.32552 3 1 ack 40 ------- 0 3.0 2.0 17 39
r 0.325704 2 0 tcp 1000 ------- 0 2.0 3.0 20 37
+ 0.325704 0 1 tcp 1000 ------- 0 2.0 3.0 20 37
- 0.325704 0 1 tcp 1000 ------- 0 2.0 3.0 20 37
r 0.326504 2 0 tcp 1000 ------- 0 2.0 3.0 21 38
+ 0.326504 0 1 tcp 1000 ------- 0 2.0 3.0 21 38
r 0.326552 3 1 ack 40 ------- 0 3.0 2.0 17 39
+ 0.326552 1 0 ack 40 ------- 0 3.0 2.0 17 39
- 0.326552 1 0 ack 40 ------- 0 3.0 2.0 17 39
r 0.330872 1 0 ack 40 ------- 0 3.0 2.0 15 34
+ 0.330872 0 2 ack 40 ------- 0 3.0 2.0 15 34
- 0.330872 0 2 ack 40 ------- 0 3.0 2.0 15 34
r 0.33172 0 1 tcp 1000 ------- 0 2.0 3.0 18 33
+ 0.33172 1 3 tcp 1000 ------- 0 2.0 3.0 18 33
- 0.33172 1 3 tcp 1000 ------- 0 2.0 3.0 18 33
r 0.331904 0 2 ack 40 ------- 0 3.0 2.0 15 34
+ 0.331904 2 0 tcp 1000 ------- 0 2.0 3.0 22 40
- 0.331904 2 0 tcp 1000 ------- 0 2.0 3.0 22 40
+ 0.331904 2 0 tcp 1000 ------- 0 2.0 3.0 23 41
- 0.332704 2 0 tcp 1000 ------- 0 2.0 3.0 23 41
r 0.33352 1 3 tcp 1000 ------- 0 2.0 3.0 18 33
+ 0.33352 3 1 ack 40 ------- 0 3.0 2.0 18 42
- 0.33352 3 1 ack 40 ------- 0 3.0 2.0 18 42
- 0.333704 0 1 tcp 1000 ------- 0 2.0 3.0 21 38
r 0.333704 2 0 tcp 1000 ------- 0 2.0 3.0 22 40
+ 0.333704 0 1 tcp 1000 ------- 0 2.0 3.0 22 40
r 0.334504 2 0 tcp 1000 ------- 0 2.0 3.0 23 41
+ 0.334504 0 1 tcp 1000 ------- 0 2.0 3.0 23 41
r 0.334552 3 1 ack 40 ------- 0 3.0 2.0 18 42
+ 0.334552 1 0 ack 40 ------- 0 3.0 2.0 18 42
- 0.334552 1 0 ack 40 ------- 0 3.0 2.0 18 42
r 0.338872 1 0 ack 40 ------- 0 3.0 2.0 16 36
+ 0.338872 0 2 ack 40 ------- 0 3.0 2.0 16 36
- 0.338872 0 2 ack 40 ------- 0 3.0 2.0 16 36
r 0.33972 0 1 tcp 1000 ------- 0 2.0 3.0 19 35
+ 0.33972 1 3 tcp 1000 ------- 0 2.0 3.0 19 35
- 0.33972 1 3 tcp 1000 ------- 0 2.0 3.0 19 35
r 0.339904 0 2 ack 40 ------- 0 3.0 2.0 16 36
+ 0.339904 2 0 tcp 1000 ------- 0 2.0 3.0 24 43
- 0.339904 2 0 tcp 1000 ------- 0 2.0 3.0 24 43
+ 0.339904 2 0 tcp 1000 ------- 0 2.0 3.0 25 44
- 0.340704 2 0 tcp 1000 ------- 0 2.0 3.0 25 44
r 0.34152 1 3 tcp 1000 ------- 0 2.0 3.0 19 35
+ 0.34152 3 1 ack 40 ------- 0 3.0 2.0 19 45
- 0.34152 3 1 ack 40 ------- 0 3.0 2.0 19 45
- 0.341704 0 1 tcp 1000 ------- 0 2.0 3.0 22 40
r 0.341704 2 0 tcp 1000 ------- 0 2.0 3.0 24 43
+ 0.341704 0 1 tcp 1000 ------- 0 2.0 3.0 24 43
r 0.342504 2 0 tcp 1000 ------- 0 2.0 3.0 25 44
+ 0.342504 0 1 tcp 1000 ------- 0 2.0 3.0 25 44
r 0.342552 3 1 ack 40 ------- 0 3.0 2.0 19 45
+ 0.342552 1 0 ack 40 ------- 0 3.0 2.0 19 45
- 0.342552 1 0 ack 40 ------- 0 3.0 2.0 19 45
r 0.346872 1 0 ack 40 ------- 0 3.0 2.0 17 39
+ 0.346872 0 2 ack 40 ------- 0 3.0 2.0 17 39
- 0.346872 0 2 ack 40 ------- 0 3.0 2.0 17 39
r 0.347904 0 2 ack 40 ------- 0 3.0 2.0 17 39
+ 0.347904 2 0 tcp 1000 ------- 0 2.0 3.0 26 46
- 0.347904 2 0 tcp 1000 ------- 0 2.0 3.0 26 46
+ 0.347904 2 0 tcp 1000 ------- 0 2.0 3.0 27 47
- 0.348704 2 0 tcp 1000 ------- 0 2.0 3.0 27 47
- 0.349704 0 1 tcp 1000 ------- 0 2.0 3.0 23 41
r 0.349704 2 0 tcp 1000 ------- 0 2.0 3.0 26 46
+ 0.349704 0 1 tcp 1000 ------- 0 2.0 3.0 26 46
r 0.350504 2 0 tcp 1000 ------- 0 2.0 3.0 27 47
+ 0.350504 0 1 tcp 1000 ------- 0 2.0 3.0 27 47
r 0.353704 0 1 tcp 1000 ------- 0 2.0 3.0 20 37
+ 0.353704 1 3 tcp 1000 ------- 0 2.0 3.0 20 37
- 0.353704 1 3 tcp 1000 ------- 0 2.0 3.0 20 37
r 0.354872 1 0 ack 40 ------- 0 3.0 2.0 18 42
+ 0.354872 0 2 ack 40 ------- 0 3.0 2.0 18 42
- 0.354872 0 2 ack 40 ------- 0 3.0 2.0 18 42
r 0.355504 1 3 tcp 1000 ------- 0 2.0 3.0 20 37
+ 0.355504 3 1 ack 40 ------- 0 3.0 2.0 20 48
- 0.355504 3 1 ack 40 ------- 0 3.0 2.0 20 48
r 0.355904 0 2 ack 40 ------- 0 3.0 2.0 18 42
+ 0.355904 2 0 tcp 1000 ------- 0 2.0 3.0 28 49
- 0.355904 2 0 tcp 1000 ------- 0 2.0 3.0 28 49
+ 0.355904 2 0 tcp 1000 ------- 0 2.0 3.0 29 50
r 0.356536 3 1 ack 40 ------- 0 3.0 2.0 20 48
+ 0.356536 1 0 ack 40 ------- 0 3.0 2.0 20 48
- 0.356536 1 0 ack 40 ------- 0 3.0 2.0 20 48
- 0.356704 2 0 tcp 1000 ------- 0 2.0 3.0 29 50
- 0.357704 0 1 tcp 1000 ------- 0 2.0 3.0 24 43
r 0.357704 2 0 tcp 1000 ------- 0 2.0 3.0 28 49
+ 0.357704 0 1 tcp 1000 ------- 0 2.0 3.0 28 49
r 0.358504 2 0 tcp 1000 ------- 0 2.0 3.0 29 50
+ 0.358504 0 1 tcp 1000 ------- 0 2.0 3.0 29 50
r 0.361704 0 1 tcp 1000 ------- 0 2.0 3.0 21 38
+ 0.361704 1 3 tcp 1000 ------- 0 2.0 3.0 21 38
- 0.361704 1 3 tcp 1000 ------- 0 2.0 3.0 21 38
r 0.362872 1 0 ack 40 ------- 0 3.0 2.0 19 45
+ 0.362872 0 2 ack 40 ------- 0 3.0 2.0 19 45
- 0.362872 0 2 ack 40 ------- 0 3.0 2.0 19 45
r 0.363504 1 3 tcp 1000 ------- 0 2.0 3.0 21 38
+ 0.363504 3 1 ack 40 ------- 0 3.0 2.0 21 51
- 0.363504 3 1 ack 40 ------- 0 3.0 2.0 21 51
r 0.363904 0 2 ack 40 ------- 0 3.0 2.0 19 45
+ 0.363904 2 0 tcp 1000 ------- 0 2.0 3.0 30 52
- 0.363904 2 0 tcp 1000 ------- 0 2.0 3.0 30 52
+ 0.363904 2 0 tcp 1000 ------- 0 2.0 3.0 31 53
r 0.364536 3 1 ack 40 ------- 0 3.0 2.0 21 51
+ 0.364536 1 0 ack 40 ------- 0 3.0 2.0 21 51
- 0.364536 1 0 ack 40 ------- 0 3.0 2.0 21 51
- 0.364704 2 0 tcp 1000 ------- 0 2.0 3.0 31 53
- 0.365704 0 1 tcp 1000 ------- 0 2.0 3.0 25 44
r 0.365704 2 0 tcp 1000 ------- 0 2.0 3.0 30 52
+ 0.365704 0 1 tcp 1000 ------- 0 2.0 3.0 30 52
r 0.366504 2 0 tcp 1000 ------- 0 2.0 3.0 31 53
+ 0.366504 0 1 tcp 1000 ------- 0 2.0 3.0 31 53
r 0.369704 0 1 tcp 1000 ------- 0 2.0 3.0 22 40
+ 0.369704 1 3 tcp 1000 ------- 0 2.0 3.0 22 40
- 0.369704 1 3 tcp 1000 ------- 0 2.0 3.0 22 40
r 0.371504 1 3 tcp 1000 ------- 0 2.0 3.0 22 40
+ 0.371504 3 1 ack 40 ------- 0 3.0 2.0 22 54
- 0.371504 3 1 ack 40 ------- 0 3.0 2.0 22 54
r 0.372536 3 1 ack 40 ------- 0 3.0 2.0 22 54
+ 0.372536 1 0 ack 40 ------- 0 3.0 2.0 22 54
- 0.372536 1 0 ack 40 ------- 0 3.0 2.0 22 54
- 0.373704 0 1 tcp 1000 ------- 0 2.0 3.0 26 46
r 0.376856 1 0 ack 40 ------- 0 3.0 2.0 20 48
+ 0.376856 0 2 ack 40 ------- 0 3.0 2.0 20 48
- 0.376856 0 2 ack 40 ------- 0 3.0 2.0 20 48
r 0.377704 0 1 tcp 1000 ------- 0 2.0 3.0 23 41
+ 0.377704 1 3 tcp 1000 ------- 0 2.0 3.0 23 41
- 0.377704 1 3 tcp 1000 ------- 0 2.0 3.0 23 41
r 0.377888 0 2 ack 40 ------- 0 3.0 2.0 20 48
+ 0.377888 2 0 tcp 1000 ------- 0 2.0 3.0 32 55
- 0.377888 2 0 tcp 1000 ------- 0 2.0 3.0 32 55
r 0.379504 1 3 tcp 1000 ------- 0 2.0 3.0 23 41
+ 0.379504 3 1 ack 40 ------- 0 3.0 2.0 23 56
- 0.379504 3 1 ack 40 ------- 0 3.0 2.0 23 56
r 0.379688 2 0 tcp 1000 ------- 0 2.0 3.0 32 55
+ 0.379688 0 1 tcp 1000 ------- 0 2.0 3.0 32 55
r 0.380536 3 1 ack 40 ------- 0 3.0 2.0 23 56
+ 0.380536 1 0 ack 40 ------- 0 3.0 2.0 23 56
- 0.380536 1 0 ack 40 ------- 0 3.0 2.0 23 56
- 0.381704 0 1 tcp 1000 ------- 0 2.0 3.0 27 47
r 0.384856 1 0 ack 40 ------- 0 3.0 2.0 21 51
+ 0.384856 0 2 ack 40 ------- 0 3.0 2.0 21 51
- 0.384856 0 2 ack 40 ------- 0 3.0 2.0 21 51
r 0.385704 0 1 tcp 1000 ------- 0 2.0 3.0 24 43
+ 0.385704 1 3 tcp 1000 ------- 0 2.0 3.0 24 43
- 0.385704 1 3 tcp 1000 ------- 0 2.0 3.0 24 43
r 0.385888 0 2 ack 40 ------- 0 3.0 2.0 21 51
+ 0.385888 2 0 tcp 1000 ------- 0 2.0 3.0 33 57
- 0.385888 2 0 tcp 1000 ------- 0 2.0 3.0 33 57
r 0.387504 1 3 tcp 1000 ------- 0 2.0 3.0 24 43
+ 0.387504 3 1 ack 40 ------- 0 3.0 2.0 24 58
- 0.387504 3 1 ack 40 ------- 0 3.0 2.0 24 58
r 0.387688 2 0 tcp 1000 ------- 0 2.0 3.0 33 57
+ 0.387688 0 1 tcp 1000 ------- 0 2.0 3.0 33 57
r 0.388536 3 1 ack 40 ------- 0 3.0 2.0 24 58
+ 0.388536 1 0 ack 40 ------- 0 3.0 2.0 24 58
- 0.388536 1 0 ack 40 ------- 0 3.0 2.0 24 58
- 0.389704 0 1 tcp 1000 ------- 0 2.0 3.0 28 49
r 0.392856 1 0 ack 40 ------- 0 3.0 2.0 22 54
+ 0.392856 0 2 ack 40 ------- 0 3.0 2.0 22 54
- 0.392856 0 2 ack 40 ------- 0 3.0 2.0 22 54
r 0.393704 0 1 tcp 1000 ------- 0 2.0 3.0 25 44
+ 0.393704 1 3 tcp 1000 ------- 0 2.0 3.0 25 44
- 0.393704 1 3 tcp 1000 ------- 0 2.0 3.0 25 44
r 0.393888 0 2 ack 40 ------- 0 3.0 2.0 22 54
+ 0.393888 2 0 tcp 1000 ------- 0 2.0 3.0 34 59
- 0.393888 2 0 tcp 1000 ------- 0 2.0 3.0 34 59
r 0.395504 1 3 tcp 1000 ------- 0 2.0 3.0 25 44
+ 0.395504 3 1 ack 40 ------- 0 3.0 2.0 25 60
- 0.395504 3 1 ack 40 ------- 0 3.0 2.0 25 60
r 0.395688 2 0 tcp 1000 ------- 0 2.0 3.0 34 59
+ 0.395688 0 1 tcp 1000 ------- 0 2.0 3.0 34 59
r 0.396536 3 1 ack 40 ------- 0 3.0 2.0 25 60
+ 0.396536 1 0 ack 40 ------- 0 3.0 2.0 25 60
- 0.396536 1 0 ack 40 ------- 0 3.0 2.0 25 60
- 0.397704 0 1 tcp 1000 ------- 0 2.0 3.0 29 50
r 0.400856 1 0 ack 40 ------- 0 3.0 2.0 23 56
+ 0.400856 0 2 ack 40 ------- 0 3.0 2.0 23 56
- 0.400856 0 2 ack 40 ------- 0 3.0 2.0 23 56
r 0.401704 0 1 tcp 1000 ------- 0 2.0 3.0 26 46
+ 0.401704 1 3 tcp 1000 ------- 0 2.0 3.0 26 46
- 0.401704 1 3 tcp 1000 ------- 0 2.0 3.0 26 46
r 0.401888 0 2 ack 40 ------- 0 3.0 2.0 23 56
+ 0.401888 2 0 tcp 1000 ------- 0 2.0 3.0 35 61
- 0.401888 2 0 tcp 1000 ------- 0 2.0 3.0 35 61
r 0.403504 1 3 tcp 1000 ------- 0 2.0 3.0 26 46
+ 0.403504 3 1 ack 40 ------- 0 3.0 2.0 26 62
- 0.403504 3 1 ack 40 ------- 0 3.0 2.0 26 62
r 0.403688 2 0 tcp 1000 ------- 0 2.0 3.0 35 61
+ 0.403688 0 1 tcp 1000 ------- 0 2.0 3.0 35 61
r 0.404536 3 1 ack 40 ------- 0 3.0 2.0 26 62
+ 0.404536 1 0 ack 40 ------- 0 3.0 2.0 26 62
- 0.404536 1 0 ack 40 ------- 0 3.0 2.0 26 62
- 0.405704 0 1 tcp 1000 ------- 0 2.0 3.0 30 52
r 0.408856 1 0 ack 40 ------- 0 3.0 2.0 24 58
+ 0.408856 0 2 ack 40 ------- 0 3.0 2.0 24 58
- 0.408856 0 2 ack 40 ------- 0 3.0 2.0 24 58
r 0.409704 0 1 tcp 1000 ------- 0 2.0 3.0 27 47
+ 0.409704 1 3 tcp 1000 ------- 0 2.0 3.0 27 47
- 0.409704 1 3 tcp 1000 ------- 0 2.0 3.0 27 47
r 0.409888 0 2 ack 40 ------- 0 3.0 2.0 24 58
+ 0.409888 2 0 tcp 1000 ------- 0 2.0 3.0 36 63
- 0.409888 2 0 tcp 1000 ------- 0 2.0 3.0 36 63
r 0.411504 1 3 tcp 1000 ------- 0 2.0 3.0 27 47
+ 0.411504 3 1 ack 40 ------- 0 3.0 2.0 27 64
- 0.411504 3 1 ack 40 ------- 0 3.0 2.0 27 64
r 0.411688 2 0 tcp 1000 ------- 0 2.0 3.0 36 63
+ 0.411688 0 1 tcp 1000 ------- 0 2.0 3.0 36 63
r 0.412536 3 1 ack 40 ------- 0 3.0 2.0 27 64
+ 0.412536 1 0 ack 40 ------- 0 3.0 2.0 27 64
- 0.412536 1 0 ack 40 ------- 0 3.0 2.0 27 64
- 0.413704 0 1 tcp 1000 ------- 0 2.0 3.0 31 53
r 0.416856 1 0 ack 40 ------- 0 3.0 2.0 25 60
+ 0.416856 0 2 ack 40 ------- 0 3.0 2.0 25 60
- 0.416856 0 2 ack 40 ------- 0 3.0 2.0 25 60
r 0.417704 0 1 tcp 1000 ------- 0 2.0 3.0 28 49
+ 0.417704 1 3 tcp 1000 ------- 0 2.0 3.0 28 49
- 0.417704 1 3 tcp 1000 ------- 0 2.0 3.0 28 49
r 0.417888 0 2 ack 40 ------- 0 3.0 2.0 25 60
+ 0.417888 2 0 tcp 1000 ------- 0 2.0 3.0 37 65
- 0.417888 2 0 tcp 1000 ------- 0 2.0 3.0 37 65
r 0.419504 1 3 tcp 1000 ------- 0 2.0 3.0 28 49
+ 0.419504 3 1 ack 40 ------- 0 3.0 2.0 28 66
- 0.419504 3 1 ack 40 ------- 0 3.0 2.0 28 66
r 0.419688 2 0 tcp 1000 ------- 0 2.0 3.0 37 65
+ 0.419688 0 1 tcp 1000 ------- 0 2.0 3.0 37 65
r 0.420536 3 1 ack 40 ------- 0 3.0 2.0 28 66
+ 0.420536 1 0 ack 40 ------- 0 3.0 2.0 28 66
- 0.420536 1 0 ack 40 ------- 0 3.0 2.0 28 66
- 0.421704 0 1 tcp 1000 ------- 0 2.0 3.0 32 55
r 0.424856 1 0 ack 40 ------- 0 3.0 2.0 26 62
+ 0.424856 0 2 ack 40 ------- 0 3.0 2.0 26 62
- 0.424856 0 2 ack 40 ------- 0 3.0 2.0 26 62
r 0.425704 0 1 tcp 1000 ------- 0 2.0 3.0 29 50
+ 0.425704 1 3 tcp 1000 ------- 0 2.0 3.0 29 50
- 0.425704 1 3 tcp 1000 ------- 0 2.0 3.0 29 50
r 0.425888 0 2 ack 40 ------- 0 3.0 2.0 26 62
+ 0.425888 2 0 tcp 1000 ------- 0 2.0 3.0 38 67
- 0.425888 2 0 tcp 1000 ------- 0 2.0 3.0 38 67
r 0.427504 1 3 tcp 1000 ------- 0 2.0 3.0 29 50
+ 0.427504 3 1 ack 40 ------- 0 3.0 2.0 29 68
- 0.427504 3 1 ack 40 ------- 0 3.0 2.0 29 68
r 0.427688 2 0 tcp 1000 ------- 0 2.0 3.0 38 67
+ 0.427688 0 1 tcp 1000 ------- 0 2.0 3.0 38 67
r 0.428536 3 1 ack 40 ------- 0 3.0 2.0 29 68
+ 0.428536 1 0 ack 40 ------- 0 3.0 2.0 29 68
- 0.428536 1 0 ack 40 ------- 0 3.0 2.0 29 68
- 0.429704 0 1 tcp 1000 ------- 0 2.0 3.0 33 57
r 0.432856 1 0 ack 40 ------- 0 3.0 2.0 27 64
+ 0.432856 0 2 ack 40 ------- 0 3.0 2.0 27 64
- 0.432856 0 2 ack 40 ------- 0 3.0 2.0 27 64
r 0.433704 0 1 tcp 1000 ------- 0 2.0 3.0 30 52
+ 0.433704 1 3 tcp 1000 ------- 0 2.0 3.0 30 52
- 0.433704 1 3 tcp 1000 ------- 0 2.0 3.0 30 52
r 0.433888 0 2 ack 40 ------- 0 3.0 2.0 27 64
+ 0.433888 2 0 tcp 1000 ------- 0 2.0 3.0 39 69
- 0.433888 2 0 tcp 1000 ------- 0 2.0 3.0 39 69
r 0.435504 1 3 tcp 1000 ------- 0 2.0 3.0 30 52
+ 0.435504 3 1 ack 40 ------- 0 3.0 2.0 30 70
- 0.435504 3 1 ack 40 ------- 0 3.0 2.0 30 70
r 0.435688 2 0 tcp 1000 ------- 0 2.0 3.0 39 69
+ 0.435688 0 1 tcp 1000 ------- 0 2.0 3.0 39 69
r 0.436536 3 1 ack 40 ------- 0 3.0 2.0 30 70
+ 0.436536 1 0 ack 40 ------- 0 3.0 2.0 30 70
- 0.436536 1 0 ack 40 ------- 0 3.0 2.0 30 70
- 0.437704 0 1 tcp 1000 ------- 0 2.0 3.0 34 59
r 0.440856 1 0 ack 40 ------- 0 3.0 2.0 28 66
+ 0.440856 0 2 ack 40 ------- 0 3.0 2.0 28 66
- 0.440856 0 2 ack 40 ------- 0 3.0 2.0 28 66
r 0.441704 0 1 tcp 1000 ------- 0 2.0 3.0 31 53
+ 0.441704 1 3 tcp 1000 ------- 0 2.0 3.0 31 53
- 0.441704 1 3 tcp 1000 ------- 0 2.0 3.0 31 53
r 0.441888 0 2 ack 40 ------- 0 3.0 2.0 28 66
+ 0.441888 2 0 tcp 1000 ------- 0 2.0 3.0 40 71
- 0.441888 2 0 tcp 1000 ------- 0 2.0 3.0 40 71
r 0.443504 1 3 tcp 1000 ------- 0 2.0 3.0 31 53
+ 0.443504 3 1 ack 40 ------- 0 3.0 2.0 31 72
- 0.443504 3 1 ack 40 ------- 0 3.0 2.0 31 72
r 0.443688 2 0 tcp 1000 ------- 0 2.0 3.0 40 71
+ 0.443688 0 1 tcp 1000 ------- 0 2.0 3.0 40 71
r 0.444536 3 1 ack 40 ------- 0 3.0 2.0 31 72
+ 0.444536 1 0 ack 40 ------- 0 3.0 2.0 31 72
- 0.444536 1 0 ack 40 ------- 0 3.0 2.0 31 72
- 0.445704 0 1 tcp 1000 ------- 0 2.0 3.0 35 61
r 0.448856 1 0 ack 40 ------- 0 3.0 2.0 29 68
+ 0.448856 0 2 ack 40 ------- 0 3.0 2.0 29 68
- 0.448856 0 2 ack 40 ------- 0 3.0 2.0 29 68
r 0.449704 0 1 tcp 1000 ------- 0 2.0 3.0 32 55
+ 0.449704 1 3 tcp 1000 ------- 0 2.0 3.0 32 55
- 0.449704 1 3 tcp 1000 ------- 0 2.0 3.0 32 55
r 0.449888 0 2 ack 40 ------- 0 3.0 2.0 29 68
+ 0.449888 2 0 tcp 1000 ------- 0 2.0 3.0 41 73
- 0.449888 2 0 tcp 1000 ------- 0 2.0 3.0 41 73
r 0.451504 1 3 tcp 1000 ------- 0 2.0 3.0 32 55
+ 0.451504 3 1 ack 40 ------- 0 3.0 2.0 32 74
- 0.451504 3 1 ack 40 ------- 0 3.0 2.0 32 74
r 0.451688 2 0 tcp 1000 ------- 0 2.0 3.0 41 73
+ 0.451688 0 1 tcp 1000 ------- 0 2.0 3.0 41 73
r 0.452536 3 1 ack 40 ------- 0 3.0 2.0 32 74
+ 0.452536 1 0 ack 40 ------- 0 3.0 2.0 32 74
- 0.452536 1 0 ack 40 ------- 0 3.0 2.0 32 74
- 0.453704 0 1 tcp 1000 ------- 0 2.0 3.0 36 63
r 0.456856 1 0 ack 40 ------- 0 3.0 2.0 30 70
+ 0.456856 0 2 ack 40 ------- 0 3.0 2.0 30 70
- 0.456856 0 2 ack 40 ------- 0 3.0 2.0 30 70
r 0.457704 0 1 tcp 1000 ------- 0 2.0 3.0 33 57
+ 0.457704 1 3 tcp 1000 ------- 0 2.0 3.0 33 57
- 0.457704 1 3 tcp 1000 ------- 0 2.0 3.0 33 57
r 0.457888 0 2 ack 40 ------- 0 3.0 2.0 30 70
+ 0.457888 2 0 tcp 1000 ------- 0 2.0 3.0 42 75
- 0.457888 2 0 tcp 1000 ------- 0 2.0 3.0 42 75
r 0.459504 1 3 tcp 1000 ------- 0 2.0 3.0 33 57
+ 0.459504 3 1 ack 40 ------- 0 3.0 2.0 33 76
- 0.459504 3 1 ack 40 ------- 0 3.0 2.0 33 76
r 0.459688 2 0 tcp 1000 ------- 0 2.0 3.0 42 75
+ 0.459688 0 1 tcp 1000 ------- 0 2.0 3.0 42 75
r 0.460536 3 1 ack 40 ------- 0 3.0 2.0 33 76
+ 0.460536 1 0 ack 40 ------- 0 3.0 2.0 33 76
- 0.460536 1 0 ack 40 ------- 0 3.0 2.0 33 76
- 0.461704 0 1 tcp 1000 ------- 0 2.0 3.0 37 65
r 0.464856 1 0 ack 40 ------- 0 3.0 2.0 31 72
+ 0.464856 0 2 ack 40 ------- 0 3.0 2.0 31 72
- 0.464856 0 2 ack 40 ------- 0 3.0 2.0 31 72
r 0.465704 0 1 tcp 1000 ------- 0 2.0 3.0 34 59
+ 0.465704 1 3 tcp 1000 ------- 0 2.0 3.0 34 59