+ 0 2 0 tcp 1000 ------- 0 2.0 3.0 0 0
- 0 2 0 tcp 1000 ------- 0 2.0 3.0 0 0
+ 0 4 0 tcp 40 ------- 0 4.0 5.0 0 1
- 0 4 0 tcp 40 ------- 0 4.0 5.0 0 1
r 0.001032 4 0 tcp 40 ------- 0 4.0 5.0 0 1
+ 0.001032 0 1 tcp 40 ------- 0 4.0 5.0 0 1
- 0.001032 0 1 tcp 40 ------- 0 4.0 5.0 0 1
r 0.0018 2 0 tcp 1000 ------- 0 2.0 3.0 0 0
+ 0.0018 0 1 tcp 1000 ------- 0 2.0 3.0 0 0
- 0.0018 0 1 tcp 1000 ------- 0 2.0 3.0 0 0
r 0.021352 0 1 tcp 40 ------- 0 4.0 5.0 0 1
+ 0.021352 1 5 tcp 40 ------- 0 4.0 5.0 0 1
- 0.021352 1 5 tcp 40 ------- 0 4.0 5.0 0 1
r 0.022384 1 5 tcp 40 ------- 0 4.0 5.0 0 1
+ 0.022384 5 1 ack 40 ------- 0 5.0 4.0 0 2
- 0.022384 5 1 ack 40 ------- 0 5.0 4.0 0 2
r 0.023416 5 1 ack 40 ------- 0 5.0 4.0 0 2
+ 0.023416 1 0 ack 40 ------- 0 5.0 4.0 0 2
- 0.023416 1 0 ack 40 ------- 0 5.0 4.0 0 2
r 0.0298 0 1 tcp 1000 ------- 0 2.0 3.0 0 0
+ 0.0298 1 3 tcp 1000 ------- 0 2.0 3.0 0 0
- 0.0298 1 3 tcp 1000 ------- 0 2.0 3.0 0 0
r 0.0316 1 3 tcp 1000 ------- 0 2.0 3.0 0 0
+ 0.0316 3 1 ack 40 ------- 0 3.0 2.0 0 3
- 0.0316 3 1 ack 40 ------- 0 3.0 2.0 0 3
r 0.032632 3 1 ack 40 ------- 0 3.0 2.0 0 3
+ 0.032632 1 0 ack 40 ------- 0 3.0 2.0 0 3
- 0.032632 1 0 ack 40 ------- 0 3.0 2.0 0 3
r 0.043736 1 0 ack 40 ------- 0 5.0 4.0 0 2
+ 0.043736 0 4 ack 40 ------- 0 5.0 4.0 0 2
- 0.043736 0 4 ack 40 ------- 0 5.0 4.0 0 2
r 0.044768 0 4 ack 40 ------- 0 5.0 4.0 0 2
+ 0.044768 4 0 tcp 1040 ------- 0 4.0 5.0 1 4
- 0.044768 4 0 tcp 1040 ------- 0 4.0 5.0 1 4
+ 0.044768 4 0 tcp 1040 ------- 0 4.0 5.0 2 5
- 0.0456 4 0 tcp 1040 ------- 0 4.0 5.0 2 5
r 0.0466 4 0 tcp 1040 ------- 0 4.0 5.0 1 4
+ 0.0466 0 1 tcp 1040 ------- 0 4.0 5.0 1 4
- 0.0466 0 1 tcp 1040 ------- 0 4.0 5.0 1 4
r 0.047432 4 0 tcp 1040 ------- 0 4.0 5.0 2 5
+ 0.047432 0 1 tcp 1040 ------- 0 4.0 5.0 2 5
r 0.052952 1 0 ack 40 ------- 0 3.0 2.0 0 3
+ 0.052952 0 2 ack 40 ------- 0 3.0 2.0 0 3
- 0.052952 0 2 ack 40 ------- 0 3.0 2.0 0 3
r 0.053984 0 2 ack 40 ------- 0 3.0 2.0 0 3
+ 0.053984 2 0 tcp 1000 ------- 0 2.0 3.0 1 6
- 0.053984 2 0 tcp 1000 ------- 0 2.0 3.0 1 6
- 0.05492 0 1 tcp 1040 ------- 0 4.0 5.0 2 5
r 0.055784 2 0 tcp 1000 ------- 0 2.0 3.0 1 6
+ 0.055784 0 1 tcp 1000 ------- 0 2.0 3.0 1 6
- 0.06324 0 1 tcp 1000 ------- 0 2.0 3.0 1 6
r 0.07492 0 1 tcp 1040 ------- 0 4.0 5.0 1 4
+ 0.07492 1 5 tcp 1040 ------- 0 4.0 5.0 1 4
- 0.07492 1 5 tcp 1040 ------- 0 4.0 5.0 1 4
r 0.076752 1 5 tcp 1040 ------- 0 4.0 5.0 1 4
+ 0.076752 5 1 ack 40 ------- 0 5.0 4.0 1 7
- 0.076752 5 1 ack 40 ------- 0 5.0 4.0 1 7
r 0.077784 5 1 ack 40 ------- 0 5.0 4.0 1 7
+ 0.077784 1 0 ack 40 ------- 0 5.0 4.0 1 7
- 0.077784 1 0 ack 40 ------- 0 5.0 4.0 1 7
r 0.08324 0 1 tcp 1040 ------- 0 4.0 5.0 2 5
+ 0.08324 1 5 tcp 1040 ------- 0 4.0 5.0 2 5
- 0.08324 1 5 tcp 1040 ------- 0 4.0 5.0 2 5
r 0.085072 1 5 tcp 1040 ------- 0 4.0 5.0 2 5
+ 0.085072 5 1 ack 40 ------- 0 5.0 4.0 2 8
- 0.085072 5 1 ack 40 ------- 0 5.0 4.0 2 8
r 0.086104 5 1 ack 40 ------- 0 5.0 4.0 2 8
+ 0.086104 1 0 ack 40 ------- 0 5.0 4.0 2 8
- 0.086104 1 0 ack 40 ------- 0 5.0 4.0 2 8
r 0.09124 0 1 tcp 1000 ------- 0 2.0 3.0 1 6
+ 0.09124 1 3 tcp 1000 ------- 0 2.0 3.0 1 6
- 0.09124 1 3 tcp 1000 ------- 0 2.0 3.0 1 6
r 0.09304 1 3 tcp 1000 ------- 0 2.0 3.0 1 6
+ 0.09304 3 1 ack 40 ------- 0 3.0 2.0 1 9
- 0.09304 3 1 ack 40 ------- 0 3.0 2.0 1 9
r 0.094072 3 1 ack 40 ------- 0 3.0 2.0 1 9
+ 0.094072 1 0 ack 40 ------- 0 3.0 2.0 1 9
- 0.094072 1 0 ack 40 ------- 0 3.0 2.0 1 9
r 0.098104 1 0 ack 40 ------- 0 5.0 4.0 1 7
+ 0.098104 0 4 ack 40 ------- 0 5.0 4.0 1 7
- 0.098104 0 4 ack 40 ------- 0 5.0 4.0 1 7
r 0.099136 0 4 ack 40 ------- 0 5.0 4.0 1 7
+ 0.099136 4 0 tcp 1040 ------- 0 4.0 5.0 3 10
- 0.099136 4 0 tcp 1040 ------- 0 4.0 5.0 3 10
+ 0.099136 4 0 tcp 1040 ------- 0 4.0 5.0 4 11
- 0.099968 4 0 tcp 1040 ------- 0 4.0 5.0 4 11
r 0.100968 4 0 tcp 1040 ------- 0 4.0 5.0 3 10
+ 0.100968 0 1 tcp 1040 ------- 0 4.0 5.0 3 10
- 0.100968 0 1 tcp 1040 ------- 0 4.0 5.0 3 10
r 0.1018 4 0 tcp 1040 ------- 0 4.0 5.0 4 11
+ 0.1018 0 1 tcp 1040 ------- 0 4.0 5.0 4 11
r 0.106424 1 0 ack 40 ------- 0 5.0 4.0 2 8
+ 0.106424 0 4 ack 40 ------- 0 5.0 4.0 2 8
- 0.106424 0 4 ack 40 ------- 0 5.0 4.0 2 8
r 0.107456 0 4 ack 40 ------- 0 5.0 4.0 2 8
+ 0.107456 4 0 tcp 1040 ------- 0 4.0 5.0 5 12
- 0.107456 4 0 tcp 1040 ------- 0 4.0 5.0 5 12
+ 0.107456 4 0 tcp 1040 ------- 0 4.0 5.0 6 13
- 0.108288 4 0 tcp 1040 ------- 0 4.0 5.0 6 13
- 0.109288 0 1 tcp 1040 ------- 0 4.0 5.0 4 11
r 0.109288 4 0 tcp 1040 ------- 0 4.0 5.0 5 12
+ 0.109288 0 1 tcp 1040 ------- 0 4.0 5.0 5 12
r 0.11012 4 0 tcp 1040 ------- 0 4.0 5.0 6 13
+ 0.11012 0 1 tcp 1040 ------- 0 4.0 5.0 6 13
r 0.114392 1 0 ack 40 ------- 0 3.0 2.0 1 9
+ 0.114392 0 2 ack 40 ------- 0 3.0 2.0 1 9
- 0.114392 0 2 ack 40 ------- 0 3.0 2.0 1 9
r 0.115424 0 2 ack 40 ------- 0 3.0 2.0 1 9
+ 0.115424 2 0 tcp 1000 ------- 0 2.0 3.0 2 14
- 0.115424 2 0 tcp 1000 ------- 0 2.0 3.0 2 14
+ 0.115424 2 0 tcp 1000 ------- 0 2.0 3.0 3 15
+ 0.115424 2 0 tcp 1000 ------- 0 2.0 3.0 4 16
- 0.116224 2 0 tcp 1000 ------- 0 2.0 3.0 3 15
- 0.117024 2 0 tcp 1000 ------- 0 2.0 3.0 4 16
r 0.117224 2 0 tcp 1000 ------- 0 2.0 3.0 2 14
+ 0.117224 0 1 tcp 1000 ------- 0 2.0 3.0 2 14
- 0.117608 0 1 tcp 1040 ------- 0 4.0 5.0 5 12
r 0.118024 2 0 tcp 1000 ------- 0 2.0 3.0 3 15
+ 0.118024 0 1 tcp 1000 ------- 0 2.0 3.0 3 15
r 0.118824 2 0 tcp 1000 ------- 0 2.0 3.0 4 16
+ 0.118824 0 1 tcp 1000 ------- 0 2.0 3.0 4 16
- 0.125928 0 1 tcp 1040 ------- 0 4.0 5.0 6 13
r 0.129288 0 1 tcp 1040 ------- 0 4.0 5.0 3 10
+ 0.129288 1 5 tcp 1040 ------- 0 4.0 5.0 3 10
- 0.129288 1 5 tcp 1040 ------- 0 4.0 5.0 3 10
r 0.13112 1 5 tcp 1040 ------- 0 4.0 5.0 3 10
+ 0.13112 5 1 ack 40 ------- 0 5.0 4.0 3 17
- 0.13112 5 1 ack 40 ------- 0 5.0 4.0 3 17
r 0.132152 5 1 ack 40 ------- 0 5.0 4.0 3 17
+ 0.132152 1 0 ack 40 ------- 0 5.0 4.0 3 17
- 0.132152 1 0 ack 40 ------- 0 5.0 4.0 3 17
- 0.134248 0 1 tcp 1000 ------- 0 2.0 3.0 2 14
r 0.137608 0 1 tcp 1040 ------- 0 4.0 5.0 4 11
+ 0.137608 1 5 tcp 1040 ------- 0 4.0 5.0 4 11
- 0.137608 1 5 tcp 1040 ------- 0 4.0 5.0 4 11
r 0.13944 1 5 tcp 1040 ------- 0 4.0 5.0 4 11
+ 0.13944 5 1 ack 40 ------- 0 5.0 4.0 4 18
- 0.13944 5 1 ack 40 ------- 0 5.0 4.0 4 18
r 0.140472 5 1 ack 40 ------- 0 5.0 4.0 4 18
+ 0.140472 1 0 ack 40 ------- 0 5.0 4.0 4 18
- 0.140472 1 0 ack 40 ------- 0 5.0 4.0 4 18
- 0.142248 0 1 tcp 1000 ------- 0 2.0 3.0 3 15
r 0.145928 0 1 tcp 1040 ------- 0 4.0 5.0 5 12
+ 0.145928 1 5 tcp 1040 ------- 0 4.0 5.0 5 12
- 0.145928 1 5 tcp 1040 ------- 0 4.0 5.0 5 12
r 0.14776 1 5 tcp 1040 ------- 0 4.0 5.0 5 12
+ 0.14776 5 1 ack 40 ------- 0 5.0 4.0 5 19
- 0.14776 5 1 ack 40 ------- 0 5.0 4.0 5 19
r 0.148792 5 1 ack 40 ------- 0 5.0 4.0 5 19
+ 0.148792 1 0 ack 40 ------- 0 5.0 4.0 5 19
- 0.148792 1 0 ack 40 ------- 0 5.0 4.0 5 19
- 0.150248 0 1 tcp 1000 ------- 0 2.0 3.0 4 16
r 0.152472 1 0 ack 40 ------- 0 5.0 4.0 3 17
+ 0.152472 0 4 ack 40 ------- 0 5.0 4.0 3 17
- 0.152472 0 4 ack 40 ------- 0 5.0 4.0 3 17
r 0.153504 0 4 ack 40 ------- 0 5.0 4.0 3 17
+ 0.153504 4 0 tcp 1040 ------- 0 4.0 5.0 7 20
- 0.153504 4 0 tcp 1040 ------- 0 4.0 5.0 7 20
+ 0.153504 4 0 tcp 1040 ------- 0 4.0 5.0 8 21
r 0.154248 0 1 tcp 1040 ------- 0 4.0 5.0 6 13
+ 0.154248 1 5 tcp 1040 ------- 0 4.0 5.0 6 13
- 0.154248 1 5 tcp 1040 ------- 0 4.0 5.0 6 13
- 0.154336 4 0 tcp 1040 ------- 0 4.0 5.0 8 21
r 0.155336 4 0 tcp 1040 ------- 0 4.0 5.0 7 20
+ 0.155336 0 1 tcp 1040 ------- 0 4.0 5.0 7 20
r 0.15608 1 5 tcp 1040 ------- 0 4.0 5.0 6 13
+ 0.15608 5 1 ack 40 ------- 0 5.0 4.0 6 22
- 0.15608 5 1 ack 40 ------- 0 5.0 4.0 6 22
r 0.156168 4 0 tcp 1040 ------- 0 4.0 5.0 8 21
+ 0.156168 0 1 tcp 1040 ------- 0 4.0 5.0 8 21
r 0.157112 5 1 ack 40 ------- 0 5.0 4.0 6 22
+ 0.157112 1 0 ack 40 ------- 0 5.0 4.0 6 22
- 0.157112 1 0 ack 40 ------- 0 5.0 4.0 6 22
- 0.158248 0 1 tcp 1040 ------- 0 4.0 5.0 7 20
r 0.160792 1 0 ack 40 ------- 0 5.0 4.0 4 18
+ 0.160792 0 4 ack 40 ------- 0 5.0 4.0 4 18
- 0.160792 0 4 ack 40 ------- 0 5.0 4.0 4 18
r 0.161824 0 4 ack 40 ------- 0 5.0 4.0 4 18
+ 0.161824 4 0 tcp 1040 ------- 0 4.0 5.0 9 23
- 0.161824 4 0 tcp 1040 ------- 0 4.0 5.0 9 23
+ 0.161824 4 0 tcp 1040 ------- 0 4.0 5.0 10 24
r 0.162248 0 1 tcp 1000 ------- 0 2.0 3.0 2 14
+ 0.162248 1 3 tcp 1000 ------- 0 2.0 3.0 2 14
- 0.162248 1 3 tcp 1000 ------- 0 2.0 3.0 2 14
- 0.162656 4 0 tcp 1040 ------- 0 4.0 5.0 10 24
r 0.163656 4 0 tcp 1040 ------- 0 4.0 5.0 9 23
+ 0.163656 0 1 tcp 1040 ------- 0 4.0 5.0 9 23
r 0.164048 1 3 tcp 1000 ------- 0 2.0 3.0 2 14
+ 0.164048 3 1 ack 40 ------- 0 3.0 2.0 2 25
- 0.164048 3 1 ack 40 ------- 0 3.0 2.0 2 25
r 0.164488 4 0 tcp 1040 ------- 0 4.0 5.0 10 24
+ 0.164488 0 1 tcp 1040 ------- 0 4.0 5.0 10 24
r 0.16508 3 1 ack 40 ------- 0 3.0 2.0 2 25
+ 0.16508 1 0 ack 40 ------- 0 3.0 2.0 2 25
- 0.16508 1 0 ack 40 ------- 0 3.0 2.0 2 25
- 0.166568 0 1 tcp 1040 ------- 0 4.0 5.0 8 21
r 0.169112 1 0 ack 40 ------- 0 5.0 4.0 5 19
+ 0.169112 0 4 ack 40 ------- 0 5.0 4.0 5 19
- 0.169112 0 4 ack 40 ------- 0 5.0 4.0 5 19
r 0.170144 0 4 ack 40 ------- 0 5.0 4.0 5 19
+ 0.170144 4 0 tcp 1040 ------- 0 4.0 5.0 11 26
- 0.170144 4 0 tcp 1040 ------- 0 4.0 5.0 11 26
+ 0.170144 4 0 tcp 1040 ------- 0 4.0 5.0 12 27
r 0.170248 0 1 tcp 1000 ------- 0 2.0 3.0 3 15
+ 0.170248 1 3 tcp 1000 ------- 0 2.0 3.0 3 15
- 0.170248 1 3 tcp 1000 ------- 0 2.0 3.0 3 15
- 0.170976 4 0 tcp 1040 ------- 0 4.0 5.0 12 27
r 0.171976 4 0 tcp 1040 ------- 0 4.0 5.0 11 26
+ 0.171976 0 1 tcp 1040 ------- 0 4.0 5.0 11 26
r 0.172048 1 3 tcp 1000 ------- 0 2.0 3.0 3 15
+ 0.172048 3 1 ack 40 ------- 0 3.0 2.0 3 28
- 0.172048 3 1 ack 40 ------- 0 3.0 2.0 3 28
r 0.172808 4 0 tcp 1040 ------- 0 4.0 5.0 12 27
+ 0.172808 0 1 tcp 1040 ------- 0 4.0 5.0 12 27
r 0.17308 3 1 ack 40 ------- 0 3.0 2.0 3 28
+ 0.17308 1 0 ack 40 ------- 0 3.0 2.0 3 28
- 0.17308 1 0 ack 40 ------- 0 3.0 2.0 3 28
- 0.174888 0 1 tcp 1040 ------- 0 4.0 5.0 9 23
r 0.177432 1 0 ack 40 ------- 0 5.0 4.0 6 22
+ 0.177432 0 4 ack 40 ------- 0 5.0 4.0 6 22
- 0.177432 0 4 ack 40 ------- 0 5.0 4.0 6 22
r 0.178248 0 1 tcp 1000 ------- 0 2.0 3.0 4 16
+ 0.178248 1 3 tcp 1000 ------- 0 2.0 3.0 4 16
- 0.178248 1 3 tcp 1000 ------- 0 2.0 3.0 4 16
r 0.178464 0 4 ack 40 ------- 0 5.0 4.0 6 22
+ 0.178464 4 0 tcp 1040 ------- 0 4.0 5.0 13 29
- 0.178464 4 0 tcp 1040 ------- 0 4.0 5.0 13 29
+ 0.178464 4 0 tcp 1040 ------- 0 4.0 5.0 14 30
- 0.179296 4 0 tcp 1040 ------- 0 4.0 5.0 14 30
r 0.180048 1 3 tcp 1000 ------- 0 2.0 3.0 4 16
+ 0.180048 3 1 ack 40 ------- 0 3.0 2.0 4 31
- 0.180048 3 1 ack 40 ------- 0 3.0 2.0 4 31
r 0.180296 4 0 tcp 1040 ------- 0 4.0 5.0 13 29
+ 0.180296 0 1 tcp 1040 ------- 0 4.0 5.0 13 29
r 0.18108 3 1 ack 40 ------- 0 3.0 2.0 4 31
+ 0.18108 1 0 ack 40 ------- 0 3.0 2.0 4 31
- 0.18108 1 0 ack 40 ------- 0 3.0 2.0 4 31
r 0.181128 4 0 tcp 1040 ------- 0 4.0 5.0 14 30
+ 0.181128 0 1 tcp 1040 ------- 0 4.0 5.0 14 30
- 0.183208 0 1 tcp 1040 ------- 0 4.0 5.0 10 24
r 0.1854 1 0 ack 40 ------- 0 3.0 2.0 2 25
+ 0.1854 0 2 ack 40 ------- 0 3.0 2.0 2 25
- 0.1854 0 2 ack 40 ------- 0 3.0 2.0 2 25
r 0.186432 0 2 ack 40 ------- 0 3.0 2.0 2 25
+ 0.186432 2 0 tcp 1000 ------- 0 2.0 3.0 5 32
- 0.186432 2 0 tcp 1000 ------- 0 2.0 3.0 5 32
r 0.186568 0 1 tcp 1040 ------- 0 4.0 5.0 7 20
+ 0.186568 1 5 tcp 1040 ------- 0 4.0 5.0 7 20
- 0.186568 1 5 tcp 1040 ------- 0 4.0 5.0 7 20
r 0.188232 2 0 tcp 1000 ------- 0 2.0 3.0 5 32
+ 0.188232 0 1 tcp 1000 ------- 0 2.0 3.0 5 32
r 0.1884 1 5 tcp 1040 ------- 0 4.0 5.0 7 20
+ 0.1884 5 1 ack 40 ------- 0 5.0 4.0 7 33
- 0.1884 5 1 ack 40 ------- 0 5.0 4.0 7 33
r 0.189432 5 1 ack 40 ------- 0 5.0 4.0 7 33
+ 0.189432 1 0 ack 40 ------- 0 5.0 4.0 7 33
- 0.189432 1 0 ack 40 ------- 0 5.0 4.0 7 33
- 0.191528 0 1 tcp 1040 ------- 0 4.0 5.0 11 26
r 0.1934 1 0 ack 40 ------- 0 3.0 2.0 3 28
+ 0.1934 0 2 ack 40 ------- 0 3.0 2.0 3 28
- 0.1934 0 2 ack 40 ------- 0 3.0 2.0 3 28
r 0.194432 0 2 ack 40 ------- 0 3.0 2.0 3 28
+ 0.194432 2 0 tcp 1000 ------- 0 2.0 3.0 6 34
- 0.194432 2 0 tcp 1000 ------- 0 2.0 3.0 6 34
r 0.194888 0 1 tcp 1040 ------- 0 4.0 5.0 8 21
+ 0.194888 1 5 tcp 1040 ------- 0 4.0 5.0 8 21
- 0.194888 1 5 tcp 1040 ------- 0 4.0 5.0 8 21
r 0.196232 2 0 tcp 1000 ------- 0 2.0 3.0 6 34
+ 0.196232 0 1 tcp 1000 ------- 0 2.0 3.0 6 34
r 0.19672 1 5 tcp 1040 ------- 0 4.0 5.0 8 21
+ 0.19672 5 1 ack 40 ------- 0 5.0 4.0 8 35
- 0.19672 5 1 ack 40 ------- 0 5.0 4.0 8 35
r 0.197752 5 1 ack 40 ------- 0 5.0 4.0 8 35
+ 0.197752 1 0 ack 40 ------- 0 5.0 4.0 8 35
- 0.197752 1 0 ack 40 ------- 0 5.0 4.0 8 35
- 0.199848 0 1 tcp 1040 ------- 0 4.0 5.0 12 27
r 0.2014 1 0 ack 40 ------- 0 3.0 2.0 4 31
+ 0.2014 0 2 ack 40 ------- 0 3.0 2.0 4 31
- 0.2014 0 2 ack 40 ------- 0 3.0 2.0 4 31
r 0.202432 0 2 ack 40 ------- 0 3.0 2.0 4 31
+ 0.202432 2 0 tcp 1000 ------- 0 2.0 3.0 7 36
- 0.202432 2 0 tcp 1000 ------- 0 2.0 3.0 7 36
r 0.203208 0 1 tcp 1040 ------- 0 4.0 5.0 9 23
+ 0.203208 1 5 tcp 1040 ------- 0 4.0 5.0 9 23
- 0.203208 1 5 tcp 1040 ------- 0 4.0 5.0 9 23
r 0.204232 2 0 tcp 1000 ------- 0 2.0 3.0 7 36
+ 0.204232 0 1 tcp 1000 ------- 0 2.0 3.0 7 36
r 0.20504 1 5 tcp 1040 ------- 0 4.0 5.0 9 23
+ 0.20504 5 1 ack 40 ------- 0 5.0 4.0 9 37
- 0.20504 5 1 ack 40 ------- 0 5.0 4.0 9 37
r 0.206072 5 1 ack 40 ------- 0 5.0 4.0 9 37
+ 0.206072 1 0 ack 40 ------- 0 5.0 4.0 9 37
- 0.206072 1 0 ack 40 ------- 0 5.0 4.0 9 37
- 0.208168 0 1 tcp 1040 ------- 0 4.0 5.0 13 29
r 0.209752 1 0 ack 40 ------- 0 5.0 4.0 7 33
+ 0.209752 0 4 ack 40 ------- 0 5.0 4.0 7 33
- 0.209752 0 4 ack 40 ------- 0 5.0 4.0 7 33
r 0.210784 0 4 ack 40 ------- 0 5.0 4.0 7 33
+ 0.210784 4 0 tcp 1040 ------- 0 4.0 5.0 15 38
- 0.210784 4 0 tcp 1040 ------- 0 4.0 5.0 15 38
+ 0.210784 4 0 tcp 1040 ------- 0 4.0 5.0 16 39
r 0.211528 0 1 tcp 1040 ------- 0 4.0 5.0 10 24
+ 0.211528 1 5 tcp 1040 ------- 0 4.0 5.0 10 24
- 0.211528 1 5 tcp 1040 ------- 0 4.0 5.0 10 24
- 0.211616 4 0 tcp 1040 ------- 0 4.0 5.0 16 39
r 0.212616 4 0 tcp 1040 ------- 0 4.0 5.0 15 38
+ 0.212616 0 1 tcp 1040 ------- 0 4.0 5.0 15 38
r 0.21336 1 5 tcp 1040 ------- 0 4.0 5.0 10 24
+ 0.21336 5 1 ack 40 ------- 0 5.0 4.0 10 40
- 0.21336 5 1 ack 40 ------- 0 5.0 4.0 10 40
r 0.213448 4 0 tcp 1040 ------- 0 4.0 5.0 16 39
+ 0.213448 0 1 tcp 1040 ------- 0 4.0 5.0 16 39
r 0.214392 5 1 ack 40 ------- 0 5.0 4.0 10 40
+ 0.214392 1 0 ack 40 ------- 0 5.0 4.0 10 40
- 0.214392 1 0 ack 40 ------- 0 5.0 4.0 10 40
- 0.216488 0 1 tcp 1040 ------- 0 4.0 5.0 14 30
r 0.218072 1 0 ack 40 ------- 0 5.0 4.0 8 35
+ 0.218072 0 4 ack 40 ------- 0 5.0 4.0 8 35
- 0.218072 0 4 ack 40 ------- 0 5.0 4.0 8 35
r 0.219104 0 4 ack 40 ------- 0 5.0 4.0 8 35
+ 0.219104 4 0 tcp 1040 ------- 0 4.0 5.0 17 41
- 0.219104 4 0 tcp 1040 ------- 0 4.0 5.0 17 41
+ 0.219104 4 0 tcp 1040 ------- 0 4.0 5.0 18 42
r 0.219848 0 1 tcp 1040 ------- 0 4.0 5.0 11 26
+ 0.219848 1 5 tcp 1040 ------- 0 4.0 5.0 11 26
- 0.219848 1 5 tcp 1040 ------- 0 4.0 5.0 11 26
- 0.219936 4 0 tcp 1040 ------- 0 4.0 5.0 18 42
r 0.220936 4 0 tcp 1040 ------- 0 4.0 5.0 17 41
+ 0.220936 0 1 tcp 1040 ------- 0 4.0 5.0 17 41
r 0.22168 1 5 tcp 1040 ------- 0 4.0 5.0 11 26
+ 0.22168 5 1 ack 40 ------- 0 5.0 4.0 11 43
- 0.22168 5 1 ack 40 ------- 0 5.0 4.0 11 43
r 0.221768 4 0 tcp 1040 ------- 0 4.0 5.0 18 42
+ 0.221768 0 1 tcp 1040 ------- 0 4.0 5.0 18 42
r 0.222712 5 1 ack 40 ------- 0 5.0 4.0 11 43
+ 0.222712 1 0 ack 40 ------- 0 5.0 4.0 11 43
- 0.222712 1 0 ack 40 ------- 0 5.0 4.0 11 43
- 0.224808 0 1 tcp 1000 ------- 0 2.0 3.0 5 32
r 0.226392 1 0 ack 40 ------- 0 5.0 4.0 9 37
+ 0.226392 0 4 ack 40 ------- 0 5.0 4.0 9 37
- 0.226392 0 4 ack 40 ------- 0 5.0 4.0 9 37
r 0.227424 0 4 ack 40 ------- 0 5.0 4.0 9 37
+ 0.227424 4 0 tcp 1040 ------- 0 4.0 5.0 19 44
- 0.227424 4 0 tcp 1040 ------- 0 4.0 5.0 19 44
+ 0.227424 4 0 tcp 1040 ------- 0 4.0 5.0 20 45
r 0.228168 0 1 tcp 1040 ------- 0 4.0 5.0 12 27
+ 0.228168 1 5 tcp 1040 ------- 0 4.0 5.0 12 27
- 0.228168 1 5 tcp 1040 ------- 0 4.0 5.0 12 27
- 0.228256 4 0 tcp 1040 ------- 0 4.0 5.0 20 45
r 0.229256 4 0 tcp 1040 ------- 0 4.0 5.0 19 44
+ 0.229256 0 1 tcp 1040 ------- 0 4.0 5.0 19 44
r 0.23 1 5 tcp 1040 ------- 0 4.0 5.0 12 27
+ 0.23 5 1 ack 40 ------- 0 5.0 4.0 12 46
- 0.23 5 1 ack 40 ------- 0 5.0 4.0 12 46
r 0.230088 4 0 tcp 1040 ------- 0 4.0 5.0 20 45
+ 0.230088 0 1 tcp 1040 ------- 0 4.0 5.0 20 45
r 0.231032 5 1 ack 40 ------- 0 5.0 4.0 12 46
+ 0.231032 1 0 ack 40 ------- 0 5.0 4.0 12 46
- 0.231032 1 0 ack 40 ------- 0 5.0 4.0 12 46
- 0.232808 0 1 tcp 1000 ------- 0 2.0 3.0 6 34
r 0.234712 1 0 ack 40 ------- 0 5.0 4.0 10 40
+ 0.234712 0 4 ack 40 ------- 0 5.0 4.0 10 40
- 0.234712 0 4 ack 40 ------- 0 5.0 4.0 10 40
r 0.235744 0 4 ack 40 ------- 0 5.0 4.0 10 40
+ 0.235744 4 0 tcp 1040 ------- 0 4.0 5.0 21 47
- 0.235744 4 0 tcp 1040 ------- 0 4.0 5.0 21 47
+ 0.235744 4 0 tcp 1040 ------- 0 4.0 5.0 22 48
r 0.236488 0 1 tcp 1040 ------- 0 4.0 5.0 13 29
+ 0.236488 1 5 tcp 1040 ------- 0 4.0 5.0 13 29
- 0.236488 1 5 tcp 1040 ------- 0 4.0 5.0 13 29
- 0.236576 4 0 tcp 1040 ------- 0 4.0 5.0 22 48
r 0.237576 4 0 tcp 1040 ------- 0 4.0 5.0 21 47
+ 0.237576 0 1 tcp 1040 ------- 0 4.0 5.0 21 47
r 0.23832 1 5 tcp 1040 ------- 0 4.0 5.0 13 29
+ 0.23832 5 1 ack 40 ------- 0 5.0 4.0 13 49
- 0.23832 5 1 ack 40 ------- 0 5.0 4.0 13 49
r 0.238408 4 0 tcp 1040 ------- 0 4.0 5.0 22 48
+ 0.238408 0 1 tcp 1040 ------- 0 4.0 5.0 22 48
r 0.239352 5 1 ack 40 ------- 0 5.0 4.0 13 49
+ 0.239352 1 0 ack 40 ------- 0 5.0 4.0 13 49
- 0.239352 1 0 ack 40 ------- 0 5.0 4.0 13 49
- 0.240808 0 1 tcp 1000 ------- 0 2.0 3.0 7 36
r 0.243032 1 0 ack 40 ------- 0 5.0 4.0 11 43
+ 0.243032 0 4 ack 40 ------- 0 5.0 4.0 11 43
- 0.243032 0 4 ack 40 ------- 0 5.0 4.0 11 43
r 0.244064 0 4 ack 40 ------- 0 5.0 4.0 11 43
+ 0.244064 4 0 tcp 1040 ------- 0 4.0 5.0 23 50
- 0.244064 4 0 tcp 1040 ------- 0 4.0 5.0 23 50
+ 0.244064 4 0 tcp 1040 ------- 0 4.0 5.0 24 51
r 0.244808 0 1 tcp 1040 ------- 0 4.0 5.0 14 30
+ 0.244808 1 5 tcp 1040 ------- 0 4.0 5.0 14 30
- 0.244808 1 5 tcp 1040 ------- 0 4.0 5.0 14 30
- 0.244896 4 0 tcp 1040 ------- 0 4.0 5.0 24 51
r 0.245896 4 0 tcp 1040 ------- 0 4.0 5.0 23 50
+ 0.245896 0 1 tcp 1040 ------- 0 4.0 5.0 23 50
r 0.24664 1 5 tcp 1040 ------- 0 4.0 5.0 14 30
+ 0.24664 5 1 ack 40 ------- 0 5.0 4.0 14 52
- 0.24664 5 1 ack 40 ------- 0 5.0 4.0 14 52
r 0.246728 4 0 tcp 1040 ------- 0 4.0 5.0 24 51
+ 0.246728 0 1 tcp 1040 ------- 0 4.0 5.0 24 51
r 0.247672 5 1 ack 40 ------- 0 5.0 4.0 14 52
+ 0.247672 1 0 ack 40 ------- 0 5.0 4.0 14 52
- 0.247672 1 0 ack 40 ------- 0 5.0 4.0 14 52
- 0.248808 0 1 tcp 1040 ------- 0 4.0 5.0 15 38
r 0.251352 1 0 ack 40 ------- 0 5.0 4.0 12 46
+ 0.251352 0 4 ack 40 ------- 0 5.0 4.0 12 46
- 0.251352 0 4 ack 40 ------- 0 5.0 4.0 12 46
r 0.252384 0 4 ack 40 ------- 0 5.0 4.0 12 46
+ 0.252384 4 0 tcp 1040 ------- 0 4.0 5.0 25 53
- 0.252384 4 0 tcp 1040 ------- 0 4.0 5.0 25 53
+ 0.252384 4 0 tcp 1040 ------- 0 4.0 5.0 26 54
r 0.252808 0 1 tcp 1000 ------- 0 2.0 3.0 5 32
+ 0.252808 1 3 tcp 1000 ------- 0 2.0 3.0 5 32
- 0.252808 1 3 tcp 1000 ------- 0 2.0 3.0 5 32
- 0.253216 4 0 tcp 1040 ------- 0 4.0 5.0 26 54
r 0.254216 4 0 tcp 1040 ------- 0 4.0 5.0 25 53
+ 0.254216 0 1 tcp 1040 ------- 0 4.0 5.0 25 53
r 0.254608 1 3 tcp 1000 ------- 0 2.0 3.0 5 32
+ 0.254608 3 1 ack 40 ------- 0 3.0 2.0 5 55
- 0.254608 3 1 ack 40 ------- 0 3.0 2.0 5 55
r 0.255048 4 0 tcp 1040 ------- 0 4.0 5.0 26 54
+ 0.255048 0 1 tcp 1040 ------- 0 4.0 5.0 26 54
r 0.25564 3 1 ack 40 ------- 0 3.0 2.0 5 55
+ 0.25564 1 0 ack 40 ------- 0 3.0 2.0 5 55
- 0.25564 1 0 ack 40 ------- 0 3.0 2.0 5 55
- 0.257128 0 1 tcp 1040 ------- 0 4.0 5.0 16 39
r 0.259672 1 0 ack 40 ------- 0 5.0 4.0 13 49
+ 0.259672 0 4 ack 40 ------- 0 5.0 4.0 13 49
- 0.259672 0 4 ack 40 ------- 0 5.0 4.0 13 49
r 0.260704 0 4 ack 40 ------- 0 5.0 4.0 13 49
+ 0.260704 4 0 tcp 1040 ------- 0 4.0 5.0 27 56
- 0.260704 4 0 tcp 1040 ------- 0 4.0 5.0 27 56
+ 0.260704 4 0 tcp 1040 ------- 0 4.0 5.0 28 57
r 0.260808 0 1 tcp 1000 ------- 0 2.0 3.0 6 34
+ 0.260808 1 3 tcp 1000 ------- 0 2.0 3.0 6 34
- 0.260808 1 3 tcp 1000 ------- 0 2.0 3.0 6 34
- 0.261536 4 0 tcp 1040 ------- 0 4.0 5.0 28 57
r 0.262536 4 0 tcp 1040 ------- 0 4.0 5.0 27 56
+ 0.262536 0 1 tcp 1040 ------- 0 4.0 5.0 27 56
r 0.262608 1 3 tcp 1000 ------- 0 2.0 3.0 6 34
+ 0.262608 3 1 ack 40 ------- 0 3.0 2.0 6 58
- 0.262608 3 1 ack 40 ------- 0 3.0 2.0 6 58
r 0.263368 4 0 tcp 1040 ------- 0 4.0 5.0 28 57
+ 0.263368 0 1 tcp 1040 ------- 0 4.0 5.0 28 57
r 0.26364 3 1 ack 40 ------- 0 3.0 2.0 6 58
+ 0.26364 1 0 ack 40 ------- 0 3.0 2.0 6 58
- 0.26364 1 0 ack 40 ------- 0 3.0 2.0 6 58
- 0.265448 0 1 tcp 1040 ------- 0 4.0 5.0 17 41
r 0.267992 1 0 ack 40 ------- 0 5.0 4.0 14 52
+ 0.267992 0 4 ack 40 ------- 0 5.0 4.0 14 52
- 0.267992 0 4 ack 40 ------- 0 5.0 4.0 14 52
r 0.268808 0 1 tcp 1000 ------- 0 2.0 3.0 7 36
+ 0.268808 1 3 tcp 1000 ------- 0 2.0 3.0 7 36
- 0.268808 1 3 tcp 1000 ------- 0 2.0 3.0 7 36
r 0.269024 0 4 ack 40 ------- 0 5.0 4.0 14 52
+ 0.269024 4 0 tcp 1040 ------- 0 4.0 5.0 29 59
- 0.269024 4 0 tcp 1040 ------- 0 4.0 5.0 29 59
+ 0.269024 4 0 tcp 1040 ------- 0 4.0 5.0 30 60
- 0.269856 4 0 tcp 1040 ------- 0 4.0 5.0 30 60
r 0.270608 1 3 tcp 1000 ------- 0 2.0 3.0 7 36
+ 0.270608 3 1 ack 40 ------- 0 3.0 2.0 7 61
- 0.270608 3 1 ack 40 ------- 0 3.0 2.0 7 61
r 0.270856 4 0 tcp 1040 ------- 0 4.0 5.0 29 59
+ 0.270856 0 1 tcp 1040 ------- 0 4.0 5.0 29 59
r 0.27164 3 1 ack 40 ------- 0 3.0 2.0 7 61
+ 0.27164 1 0 ack 40 ------- 0 3.0 2.0 7 61
- 0.27164 1 0 ack 40 ------- 0 3.0 2.0 7 61
r 0.271688 4 0 tcp 1040 ------- 0 4.0 5.0 30 60
+ 0.271688 0 1 tcp 1040 ------- 0 4.0 5.0 30 60
- 0.273768 0 1 tcp 1040 ------- 0 4.0 5.0 18 42
r 0.27596 1 0 ack 40 ------- 0 3.0 2.0 5 55
+ 0.27596 0 2 ack 40 ------- 0 3.0 2.0 5 55
- 0.27596 0 2 ack 40 ------- 0 3.0 2.0 5 55
r 0.276992 0 2 ack 40 ------- 0 3.0 2.0 5 55
+ 0.276992 2 0 tcp 1000 ------- 0 2.0 3.0 8 62
- 0.276992 2 0 tcp 1000 ------- 0 2.0 3.0 8 62
+ 0.276992 2 0 tcp 1000 ------- 0 2.0 3.0 9 63
r 0.277128 0 1 tcp 1040 ------- 0 4.0 5.0 15 38
+ 0.277128 1 5 tcp 1040 ------- 0 4.0 5.0 15 38
- 0.277128 1 5 tcp 1040 ------- 0 4.0 5.0 15 38
- 0.277792 2 0 tcp 1000 ------- 0 2.0 3.0 9 63
r 0.278792 2 0 tcp 1000 ------- 0 2.0 3.0 8 62
+ 0.278792 0 1 tcp 1000 ------- 0 2.0 3.0 8 62
r 0.27896 1 5 tcp 1040 ------- 0 4.0 5.0 15 38
+ 0.27896 5 1 ack 40 ------- 0 5.0 4.0 15 64
- 0.27896 5 1 ack 40 ------- 0 5.0 4.0 15 64
r 0.279592 2 0 tcp 1000 ------- 0 2.0 3.0 9 63
+ 0.279592 0 1 tcp 1000 ------- 0 2.0 3.0 9 63
r 0.279992 5 1 ack 40 ------- 0 5.0 4.0 15 64
+ 0.279992 1 0 ack 40 ------- 0 5.0 4.0 15 64
- 0.279992 1 0 ack 40 ------- 0 5.0 4.0 15 64
- 0.282088 0 1 tcp 1040 ------- 0 4.0 5.0 19 44
r 0.28396 1 0 ack 40 ------- 0 3.0 2.0 6 58
+ 0.28396 0 2 ack 40 ------- 0 3.0 2.0 6 58
- 0.28396 0 2 ack 40 ------- 0 3.0 2.0 6 58
r 0.284992 0 2 ack 40 ------- 0 3.0 2.0 6 58
+ 0.284992 2 0 tcp 1000 ------- 0 2.0 3.0 10 65
- 0.284992 2 0 tcp 1000 ------- 0 2.0 3.0 10 65
+ 0.284992 2 0 tcp 1000 ------- 0 2.0 3.0 11 66
r 0.285448 0 1 tcp 1040 ------- 0 4.0 5.0 16 39
+ 0.285448 1 5 tcp 1040 ------- 0 4.0 5.0 16 39
- 0.285448 1 5 tcp 1040 ------- 0 4.0 5.0 16 39
- 0.285792 2 0 tcp 1000 ------- 0 2.0 3.0 11 66
r 0.286792 2 0 tcp 1000 ------- 0 2.0 3.0 10 65
+ 0.286792 0 1 tcp 1000 ------- 0 2.0 3.0 10 65
r 0.28728 1 5 tcp 1040 ------- 0 4.0 5.0 16 39
+ 0.28728 5 1 ack 40 ------- 0 5.0 4.0 16 67
- 0.28728 5 1 ack 40 ------- 0 5.0 4.0 16 67
r 0.287592 2 0 tcp 1000 ------- 0 2.0 3.0 11 66
+ 0.287592 0 1 tcp 1000 ------- 0 2.0 3.0 11 66
d 0.287592 0 1 tcp 1000 ------- 0 2.0 3.0 11 66
r 0.288312 5 1 ack 40 ------- 0 5.0 4.0 16 67
+ 0.288312 1 0 ack 40 ------- 0 5.0 4.0 16 67
- 0.288312 1 0 ack 40 ------- 0 5.0 4.0 16 67
- 0.290408 0 1 tcp 1040 ------- 0 4.0 5.0 20 45
r 0.29196 1 0 ack 40 ------- 0 3.0 2.0 7 61
+ 0.29196 0 2 ack 40 ------- 0 3.0 2.0 7 61
- 0.29196 0 2 ack 40 ------- 0 3.0 2.0 7 61
r 0.292992 0 2 ack 40 ------- 0 3.0 2.0 7 61
+ 0.292992 2 0 tcp 1000 ------- 0 2.0 3.0 12 68
- 0.292992 2 0 tcp 1000 ------- 0 2.0 3.0 12 68
+ 0.292992 2 0 tcp 1000 ------- 0 2.0 3.0 13 69
r 0.293768 0 1 tcp 1040 ------- 0 4.0 5.0 17 41
+ 0.293768 1 5 tcp 1040 ------- 0 4.0 5.0 17 41
- 0.293768 1 5 tcp 1040 ------- 0 4.0 5.0 17 41
- 0.293792 2 0 tcp 1000 ------- 0 2.0 3.0 13 69
r 0.294792 2 0 tcp 1000 ------- 0 2.0 3.0 12 68
+ 0.294792 0 1 tcp 1000 ------- 0 2.0 3.0 12 68
r 0.295592 2 0 tcp 1000 ------- 0 2.0 3.0 13 69
+ 0.295592 0 1 tcp 1000 ------- 0 2.0 3.0 13 69
d 0.295592 0 1 tcp 1000 ------- 0 2.0 3.0 13 69
r 0.2956 1 5 tcp 1040 ------- 0 4.0 5.0 17 41
+ 0.2956 5 1 ack 40 ------- 0 5.0 4.0 17 70
- 0.2956 5 1 ack 40 ------- 0 5.0 4.0 17 70
r 0.296632 5 1 ack 40 ------- 0 5.0 4.0 17 70
+ 0.296632 1 0 ack 40 ------- 0 5.0 4.0 17 70
- 0.296632 1 0 ack 40 ------- 0 5.0 4.0 17 70
- 0.298728 0 1 tcp 1040 ------- 0 4.0 5.0 21 47
r 0.300312 1 0 ack 40 ------- 0 5.0 4.0 15 64
+ 0.300312 0 4 ack 40 ------- 0 5.0 4.0 15 64
- 0.300312 0 4 ack 40 ------- 0 5.0 4.0 15 64
r 0.301344 0 4 ack 40 ------- 0 5.0 4.0 15 64
+ 0.301344 4 0 tcp 1040 ------- 0 4.0 5.0 31 71
- 0.301344 4 0 tcp 1040 ------- 0 4.0 5.0 31 71
+ 0.301344 4 0 tcp 1040 ------- 0 4.0 5.0 32 72
r 0.302088 0 1 tcp 1040 ------- 0 4.0 5.0 18 42
+ 0.302088 1 5 tcp 1040 ------- 0 4.0 5.0 18 42
- 0.302088 1 5 tcp 1040 ------- 0 4.0 5.0 18 42
- 0.302176 4 0 tcp 1040 ------- 0 4.0 5.0 32 72
r 0.303176 4 0 tcp 1040 ------- 0 4.0 5.0 31 71
+ 0.303176 0 1 tcp 1040 ------- 0 4.0 5.0 31 71
r 0.30392 1 5 tcp 1040 ------- 0 4.0 5.0 18 42
+ 0.30392 5 1 ack 40 ------- 0 5.0 4.0 18 73
- 0.30392 5 1 ack 40 ------- 0 5.0 4.0 18 73
r 0.304008 4 0 tcp 1040 ------- 0 4.0 5.0 32 72
+ 0.304008 0 1 tcp 1040 ------- 0 4.0 5.0 32 72
d 0.304008 0 1 tcp 1040 ------- 0 4.0 5.0 32 72
r 0.304952 5 1 ack 40 ------- 0 5.0 4.0 18 73
+ 0.304952 1 0 ack 40 ------- 0 5.0 4.0 18 73
- 0.304952 1 0 ack 40 ------- 0 5.0 4.0 18 73
- 0.307048 0 1 tcp 1040 ------- 0 4.0 5.0 22 48
r 0.308632 1 0 ack 40 ------- 0 5.0 4.0 16 67
+ 0.308632 0 4 ack 40 ------- 0 5.0 4.0 16 67
- 0.308632 0 4 ack 40 ------- 0 5.0 4.0 16 67
r 0.309664 0 4 ack 40 ------- 0 5.0 4.0 16 67
+ 0.309664 4 0 tcp 1040 ------- 0 4.0 5.0 33 74
- 0.309664 4 0 tcp 1040 ------- 0 4.0 5.0 33 74
+ 0.309664 4 0 tcp 1040 ------- 0 4.0 5.0 34 75
r 0.310408 0 1 tcp 1040 ------- 0 4.0 5.0 19 44
+ 0.310408 1 5 tcp 1040 ------- 0 4.0 5.0 19 44
- 0.310408 1 5 tcp 1040 ------- 0 4.0 5.0 19 44
- 0.310496 4 0 tcp 1040 ------- 0 4.0 5.0 34 75
r 0.311496 4 0 tcp 1040 ------- 0 4.0 5.0 33 74
+ 0.311496 0 1 tcp 1040 ------- 0 4.0 5.0 33 74
r 0.31224 1 5 tcp 1040 ------- 0 4.0 5.0 19 44
+ 0.31224 5 1 ack 40 ------- 0 5.0 4.0 19 76
- 0.31224 5 1 ack 40 ------- 0 5.0 4.0 19 76
r 0.312328 4 0 tcp 1040 ------- 0 4.0 5.0 34 75
+ 0.312328 0 1 tcp 1040 ------- 0 4.0 5.0 34 75
d 0.312328 0 1 tcp 1040 ------- 0 4.0 5.0 34 75
r 0.313272 5 1 ack 40 ------- 0 5.0 4.0 19 76
+ 0.313272 1 0 ack 40 ------- 0 5.0 4.0 19 76
- 0.313272 1 0 ack 40 ------- 0 5.0 4.0 19 76
- 0.315368 0 1 tcp 1040 ------- 0 4.0 5.0 23 50
r 0.316952 1 0 ack 40 ------- 0 5.0 4.0 17 70
+ 0.316952 0 4 ack 40 ------- 0 5.0 4.0 17 70
- 0.316952 0 4 ack 40 ------- 0 5.0 4.0 17 70
r 0.317984 0 4 ack 40 ------- 0 5.0 4.0 17 70
+ 0.317984 4 0 tcp 1040 ------- 0 4.0 5.0 35 77
- 0.317984 4 0 tcp 1040 ------- 0 4.0 5.0 35 77
+ 0.317984 4 0 tcp 1040 ------- 0 4.0 5.0 36 78
r 0.318728 0 1 tcp 1040 ------- 0 4.0 5.0 20 45
+ 0.318728 1 5 tcp 1040 ------- 0 4.0 5.0 20 45
- 0.318728 1 5 tcp 1040 ------- 0 4.0 5.0 20 45
- 0.318816 4 0 tcp 1040 ------- 0 4.0 5.0 36 78
r 0.319816 4 0 tcp 1040 ------- 0 4.0 5.0 35 77
+ 0.319816 0 1 tcp 1040 ------- 0 4.0 5.0 35 77
r 0.32056 1 5 tcp 1040 ------- 0 4.0 5.0 20 45
+ 0.32056 5 1 ack 40 ------- 0 5.0 4.0 20 79
- 0.32056 5 1 ack 40 ------- 0 5.0 4.0 20 79
r 0.320648 4 0 tcp 1040 ------- 0 4.0 5.0 36 78
+ 0.320648 0 1 tcp 1040 ------- 0 4.0 5.0 36 78
d 0.320648 0 1 tcp 1040 ------- 0 4.0 5.0 36 78
r 0.321592 5 1 ack 40 ------- 0 5.0 4.0 20 79
+ 0.321592 1 0 ack 40 ------- 0 5.0 4.0 20 79
- 0.321592 1 0 ack 40 ------- 0 5.0 4.0 20 79
- 0.323688 0 1 tcp 1040 ------- 0 4.0 5.0 24 51
r 0.325272 1 0 ack 40 ------- 0 5.0 4.0 18 73
+ 0.325272 0 4 ack 40 ------- 0 5.0 4.0 18 73
- 0.325272 0 4 ack 40 ------- 0 5.0 4.0 18 73
r 0.326304 0 4 ack 40 ------- 0 5.0 4.0 18 73
+ 0.326304 4 0 tcp 1040 ------- 0 4.0 5.0 37 80
- 0.326304 4 0 tcp 1040 ------- 0 4.0 5.0 37 80
+ 0.326304 4 0 tcp 1040 ------- 0 4.0 5.0 38 81
r 0.327048 0 1 tcp 1040 ------- 0 4.0 5.0 21 47
+ 0.327048 1 5 tcp 1040 ------- 0 4.0 5.0 21 47
- 0.327048 1 5 tcp 1040 ------- 0 4.0 5.0 21 47
- 0.327136 4 0 tcp 1040 ------- 0 4.0 5.0 38 81
r 0.328136 4 0 tcp 1040 ------- 0 4.0 5.0 37 80
+ 0.328136 0 1 tcp 1040 ------- 0 4.0 5.0 37 80
r 0.32888 1 5 tcp 1040 ------- 0 4.0 5.0 21 47
+ 0.32888 5 1 ack 40 ------- 0 5.0 4.0 21 82
- 0.32888 5 1 ack 40 ------- 0 5.0 4.0 21 82
r 0.328968 4 0 tcp 1040 ------- 0 4.0 5.0 38 81
+ 0.328968 0 1 tcp 1040 ------- 0 4.0 5.0 38 81
d 0.328968 0 1 tcp 1040 ------- 0 4.0 5.0 38 81
r 0.329912 5 1 ack 40 ------- 0 5.0 4.0 21 82
+ 0.329912 1 0 ack 40 ------- 0 5.0 4.0 21 82
- 0.329912 1 0 ack 40 ------- 0 5.0 4.0 21 82
- 0.332008 0 1 tcp 1040 ------- 0 4.0 5.0 25 53
r 0.333592 1 0 ack 40 ------- 0 5.0 4.0 19 76
+ 0.333592 0 4 ack 40 ------- 0 5.0 4.0 19 76
- 0.333592 0 4 ack 40 ------- 0 5.0 4.0 19 76
r 0.334624 0 4 ack 40 ------- 0 5.0 4.0 19 76
+ 0.334624 4 0 tcp 1040 ------- 0 4.0 5.0 39 83
- 0.334624 4 0 tcp 1040 ------- 0 4.0 5.0 39 83
+ 0.334624 4 0 tcp 1040 ------- 0 4.0 5.0 40 84
r 0.335368 0 1 tcp 1040 ------- 0 4.0 5.0 22 48
+ 0.335368 1 5 tcp 1040 ------- 0 4.0 5.0 22 48
- 0.335368 1 5 tcp 1040 ------- 0 4.0 5.0 22 48
- 0.335456 4 0 tcp 1040 ------- 0 4.0 5.0 40 84
r 0.336456 4 0 tcp 1040 ------- 0 4.0 5.0 39 83
+ 0.336456 0 1 tcp 1040 ------- 0 4.0 5.0 39 83
r 0.3372 1 5 tcp 1040 ------- 0 4.0 5.0 22 48
+ 0.3372 5 1 ack 40 ------- 0 5.0 4.0 22 85
- 0.3372 5 1 ack 40 ------- 0 5.0 4.0 22 85
r 0.337288 4 0 tcp 1040 ------- 0 4.0 5.0 40 84
+ 0.337288 0 1 tcp 1040 ------- 0 4.0 5.0 40 84
d 0.337288 0 1 tcp 1040 ------- 0 4.0 5.0 40 84