+ 0 2 0 tcp 40 ------- 0 2.0 3.0 0 0
- 0 2 0 tcp 40 ------- 0 2.0 3.0 0 0
r 0.001032 2 0 tcp 40 ------- 0 2.0 3.0 0 0
+ 0.001032 0 1 tcp 40 ------- 0 2.0 3.0 0 0
- 0.001032 0 1 tcp 40 ------- 0 2.0 3.0 0 0
r 0.005352 0 1 tcp 40 ------- 0 2.0 3.0 0 0
+ 0.005352 1 3 tcp 40 ------- 0 2.0 3.0 0 0
- 0.005352 1 3 tcp 40 ------- 0 2.0 3.0 0 0
r 0.006384 1 3 tcp 40 ------- 0 2.0 3.0 0 0
+ 0.006384 3 1 ack 40 ------- 0 3.0 2.0 0 1
- 0.006384 3 1 ack 40 ------- 0 3.0 2.0 0 1
r 0.007416 3 1 ack 40 ------- 0 3.0 2.0 0 1
+ 0.007416 1 0 ack 40 ------- 0 3.0 2.0 0 1
- 0.007416 1 0 ack 40 ------- 0 3.0 2.0 0 1
r 0.011736 1 0 ack 40 ------- 0 3.0 2.0 0 1
+ 0.011736 0 2 ack 40 ------- 0 3.0 2.0 0 1
- 0.011736 0 2 ack 40 ------- 0 3.0 2.0 0 1
r 0.012768 0 2 ack 40 ------- 0 3.0 2.0 0 1
+ 0.012768 2 0 tcp 1040 ------- 0 2.0 3.0 1 2
- 0.012768 2 0 tcp 1040 ------- 0 2.0 3.0 1 2
+ 0.012768 2 0 tcp 1040 ------- 0 2.0 3.0 2 3
- 0.0136 2 0 tcp 1040 ------- 0 2.0 3.0 2 3
r 0.0146 2 0 tcp 1040 ------- 0 2.0 3.0 1 2
+ 0.0146 0 1 tcp 1040 ------- 0 2.0 3.0 1 2
- 0.0146 0 1 tcp 1040 ------- 0 2.0 3.0 1 2
r 0.015432 2 0 tcp 1040 ------- 0 2.0 3.0 2 3
+ 0.015432 0 1 tcp 1040 ------- 0 2.0 3.0 2 3
- 0.02292 0 1 tcp 1040 ------- 0 2.0 3.0 2 3
r 0.02692 0 1 tcp 1040 ------- 0 2.0 3.0 1 2
+ 0.02692 1 3 tcp 1040 ------- 0 2.0 3.0 1 2
- 0.02692 1 3 tcp 1040 ------- 0 2.0 3.0 1 2
r 0.028752 1 3 tcp 1040 ------- 0 2.0 3.0 1 2
+ 0.028752 3 1 ack 40 ------- 0 3.0 2.0 1 4
- 0.028752 3 1 ack 40 ------- 0 3.0 2.0 1 4
r 0.029784 3 1 ack 40 ------- 0 3.0 2.0 1 4
+ 0.029784 1 0 ack 40 ------- 0 3.0 2.0 1 4
- 0.029784 1 0 ack 40 ------- 0 3.0 2.0 1 4
r 0.034104 1 0 ack 40 ------- 0 3.0 2.0 1 4
+ 0.034104 0 2 ack 40 ------- 0 3.0 2.0 1 4
- 0.034104 0 2 ack 40 ------- 0 3.0 2.0 1 4
r 0.035136 0 2 ack 40 ------- 0 3.0 2.0 1 4
+ 0.035136 2 0 tcp 1040 ------- 0 2.0 3.0 3 5
- 0.035136 2 0 tcp 1040 ------- 0 2.0 3.0 3 5
+ 0.035136 2 0 tcp 1040 ------- 0 2.0 3.0 4 6
r 0.03524 0 1 tcp 1040 ------- 0 2.0 3.0 2 3
+ 0.03524 1 3 tcp 1040 ------- 0 2.0 3.0 2 3
- 0.03524 1 3 tcp 1040 ------- 0 2.0 3.0 2 3
- 0.035968 2 0 tcp 1040 ------- 0 2.0 3.0 4 6
r 0.036968 2 0 tcp 1040 ------- 0 2.0 3.0 3 5
+ 0.036968 0 1 tcp 1040 ------- 0 2.0 3.0 3 5
- 0.036968 0 1 tcp 1040 ------- 0 2.0 3.0 3 5
r 0.037072 1 3 tcp 1040 ------- 0 2.0 3.0 2 3
+ 0.037072 3 1 ack 40 ------- 0 3.0 2.0 2 7
- 0.037072 3 1 ack 40 ------- 0 3.0 2.0 2 7
r 0.0378 2 0 tcp 1040 ------- 0 2.0 3.0 4 6
+ 0.0378 0 1 tcp 1040 ------- 0 2.0 3.0 4 6
r 0.038104 3 1 ack 40 ------- 0 3.0 2.0 2 7
+ 0.038104 1 0 ack 40 ------- 0 3.0 2.0 2 7
- 0.038104 1 0 ack 40 ------- 0 3.0 2.0 2 7
r 0.042424 1 0 ack 40 ------- 0 3.0 2.0 2 7
+ 0.042424 0 2 ack 40 ------- 0 3.0 2.0 2 7
- 0.042424 0 2 ack 40 ------- 0 3.0 2.0 2 7
r 0.043456 0 2 ack 40 ------- 0 3.0 2.0 2 7
+ 0.043456 2 0 tcp 1040 ------- 0 2.0 3.0 5 8
- 0.043456 2 0 tcp 1040 ------- 0 2.0 3.0 5 8
+ 0.043456 2 0 tcp 1040 ------- 0 2.0 3.0 6 9
- 0.044288 2 0 tcp 1040 ------- 0 2.0 3.0 6 9
- 0.045288 0 1 tcp 1040 ------- 0 2.0 3.0 4 6
r 0.045288 2 0 tcp 1040 ------- 0 2.0 3.0 5 8
+ 0.045288 0 1 tcp 1040 ------- 0 2.0 3.0 5 8
r 0.04612 2 0 tcp 1040 ------- 0 2.0 3.0 6 9
+ 0.04612 0 1 tcp 1040 ------- 0 2.0 3.0 6 9
r 0.049288 0 1 tcp 1040 ------- 0 2.0 3.0 3 5
+ 0.049288 1 3 tcp 1040 ------- 0 2.0 3.0 3 5
- 0.049288 1 3 tcp 1040 ------- 0 2.0 3.0 3 5
r 0.05112 1 3 tcp 1040 ------- 0 2.0 3.0 3 5
+ 0.05112 3 1 ack 40 ------- 0 3.0 2.0 3 10
- 0.05112 3 1 ack 40 ------- 0 3.0 2.0 3 10
r 0.052152 3 1 ack 40 ------- 0 3.0 2.0 3 10
+ 0.052152 1 0 ack 40 ------- 0 3.0 2.0 3 10
- 0.052152 1 0 ack 40 ------- 0 3.0 2.0 3 10
- 0.053608 0 1 tcp 1040 ------- 0 2.0 3.0 5 8
r 0.056472 1 0 ack 40 ------- 0 3.0 2.0 3 10
+ 0.056472 0 2 ack 40 ------- 0 3.0 2.0 3 10
- 0.056472 0 2 ack 40 ------- 0 3.0 2.0 3 10
r 0.057504 0 2 ack 40 ------- 0 3.0 2.0 3 10
+ 0.057504 2 0 tcp 1040 ------- 0 2.0 3.0 7 11
- 0.057504 2 0 tcp 1040 ------- 0 2.0 3.0 7 11
+ 0.057504 2 0 tcp 1040 ------- 0 2.0 3.0 8 12
r 0.057608 0 1 tcp 1040 ------- 0 2.0 3.0 4 6
+ 0.057608 1 3 tcp 1040 ------- 0 2.0 3.0 4 6
- 0.057608 1 3 tcp 1040 ------- 0 2.0 3.0 4 6
- 0.058336 2 0 tcp 1040 ------- 0 2.0 3.0 8 12
r 0.059336 2 0 tcp 1040 ------- 0 2.0 3.0 7 11
+ 0.059336 0 1 tcp 1040 ------- 0 2.0 3.0 7 11
r 0.05944 1 3 tcp 1040 ------- 0 2.0 3.0 4 6
+ 0.05944 3 1 ack 40 ------- 0 3.0 2.0 4 13
- 0.05944 3 1 ack 40 ------- 0 3.0 2.0 4 13
r 0.060168 2 0 tcp 1040 ------- 0 2.0 3.0 8 12
+ 0.060168 0 1 tcp 1040 ------- 0 2.0 3.0 8 12
r 0.060472 3 1 ack 40 ------- 0 3.0 2.0 4 13
+ 0.060472 1 0 ack 40 ------- 0 3.0 2.0 4 13
- 0.060472 1 0 ack 40 ------- 0 3.0 2.0 4 13
- 0.061928 0 1 tcp 1040 ------- 0 2.0 3.0 6 9
r 0.064792 1 0 ack 40 ------- 0 3.0 2.0 4 13
+ 0.064792 0 2 ack 40 ------- 0 3.0 2.0 4 13
- 0.064792 0 2 ack 40 ------- 0 3.0 2.0 4 13
r 0.065824 0 2 ack 40 ------- 0 3.0 2.0 4 13
+ 0.065824 2 0 tcp 1040 ------- 0 2.0 3.0 9 14
- 0.065824 2 0 tcp 1040 ------- 0 2.0 3.0 9 14
+ 0.065824 2 0 tcp 1040 ------- 0 2.0 3.0 10 15
r 0.065928 0 1 tcp 1040 ------- 0 2.0 3.0 5 8
+ 0.065928 1 3 tcp 1040 ------- 0 2.0 3.0 5 8
- 0.065928 1 3 tcp 1040 ------- 0 2.0 3.0 5 8
- 0.066656 2 0 tcp 1040 ------- 0 2.0 3.0 10 15
r 0.067656 2 0 tcp 1040 ------- 0 2.0 3.0 9 14
+ 0.067656 0 1 tcp 1040 ------- 0 2.0 3.0 9 14
r 0.06776 1 3 tcp 1040 ------- 0 2.0 3.0 5 8
+ 0.06776 3 1 ack 40 ------- 0 3.0 2.0 5 16
- 0.06776 3 1 ack 40 ------- 0 3.0 2.0 5 16
r 0.068488 2 0 tcp 1040 ------- 0 2.0 3.0 10 15
+ 0.068488 0 1 tcp 1040 ------- 0 2.0 3.0 10 15
r 0.068792 3 1 ack 40 ------- 0 3.0 2.0 5 16
+ 0.068792 1 0 ack 40 ------- 0 3.0 2.0 5 16
- 0.068792 1 0 ack 40 ------- 0 3.0 2.0 5 16
- 0.070248 0 1 tcp 1040 ------- 0 2.0 3.0 7 11
r 0.073112 1 0 ack 40 ------- 0 3.0 2.0 5 16
+ 0.073112 0 2 ack 40 ------- 0 3.0 2.0 5 16
- 0.073112 0 2 ack 40 ------- 0 3.0 2.0 5 16
r 0.074144 0 2 ack 40 ------- 0 3.0 2.0 5 16
+ 0.074144 2 0 tcp 1040 ------- 0 2.0 3.0 11 17
- 0.074144 2 0 tcp 1040 ------- 0 2.0 3.0 11 17
+ 0.074144 2 0 tcp 1040 ------- 0 2.0 3.0 12 18
r 0.074248 0 1 tcp 1040 ------- 0 2.0 3.0 6 9
+ 0.074248 1 3 tcp 1040 ------- 0 2.0 3.0 6 9
- 0.074248 1 3 tcp 1040 ------- 0 2.0 3.0 6 9
- 0.074976 2 0 tcp 1040 ------- 0 2.0 3.0 12 18
r 0.075976 2 0 tcp 1040 ------- 0 2.0 3.0 11 17
+ 0.075976 0 1 tcp 1040 ------- 0 2.0 3.0 11 17
r 0.07608 1 3 tcp 1040 ------- 0 2.0 3.0 6 9
+ 0.07608 3 1 ack 40 ------- 0 3.0 2.0 6 19
- 0.07608 3 1 ack 40 ------- 0 3.0 2.0 6 19
r 0.076808 2 0 tcp 1040 ------- 0 2.0 3.0 12 18
+ 0.076808 0 1 tcp 1040 ------- 0 2.0 3.0 12 18
r 0.077112 3 1 ack 40 ------- 0 3.0 2.0 6 19
+ 0.077112 1 0 ack 40 ------- 0 3.0 2.0 6 19
- 0.077112 1 0 ack 40 ------- 0 3.0 2.0 6 19
- 0.078568 0 1 tcp 1040 ------- 0 2.0 3.0 8 12
r 0.081432 1 0 ack 40 ------- 0 3.0 2.0 6 19
+ 0.081432 0 2 ack 40 ------- 0 3.0 2.0 6 19
- 0.081432 0 2 ack 40 ------- 0 3.0 2.0 6 19
r 0.082464 0 2 ack 40 ------- 0 3.0 2.0 6 19
+ 0.082464 2 0 tcp 1040 ------- 0 2.0 3.0 13 20
- 0.082464 2 0 tcp 1040 ------- 0 2.0 3.0 13 20
+ 0.082464 2 0 tcp 1040 ------- 0 2.0 3.0 14 21
r 0.082568 0 1 tcp 1040 ------- 0 2.0 3.0 7 11
+ 0.082568 1 3 tcp 1040 ------- 0 2.0 3.0 7 11
- 0.082568 1 3 tcp 1040 ------- 0 2.0 3.0 7 11
- 0.083296 2 0 tcp 1040 ------- 0 2.0 3.0 14 21
r 0.084296 2 0 tcp 1040 ------- 0 2.0 3.0 13 20
+ 0.084296 0 1 tcp 1040 ------- 0 2.0 3.0 13 20
r 0.0844 1 3 tcp 1040 ------- 0 2.0 3.0 7 11
+ 0.0844 3 1 ack 40 ------- 0 3.0 2.0 7 22
- 0.0844 3 1 ack 40 ------- 0 3.0 2.0 7 22
r 0.085128 2 0 tcp 1040 ------- 0 2.0 3.0 14 21
+ 0.085128 0 1 tcp 1040 ------- 0 2.0 3.0 14 21
r 0.085432 3 1 ack 40 ------- 0 3.0 2.0 7 22
+ 0.085432 1 0 ack 40 ------- 0 3.0 2.0 7 22
- 0.085432 1 0 ack 40 ------- 0 3.0 2.0 7 22
- 0.086888 0 1 tcp 1040 ------- 0 2.0 3.0 9 14
r 0.089752 1 0 ack 40 ------- 0 3.0 2.0 7 22
+ 0.089752 0 2 ack 40 ------- 0 3.0 2.0 7 22
- 0.089752 0 2 ack 40 ------- 0 3.0 2.0 7 22
r 0.090784 0 2 ack 40 ------- 0 3.0 2.0 7 22
+ 0.090784 2 0 tcp 1040 ------- 0 2.0 3.0 15 23
- 0.090784 2 0 tcp 1040 ------- 0 2.0 3.0 15 23
+ 0.090784 2 0 tcp 1040 ------- 0 2.0 3.0 16 24
r 0.090888 0 1 tcp 1040 ------- 0 2.0 3.0 8 12
+ 0.090888 1 3 tcp 1040 ------- 0 2.0 3.0 8 12
- 0.090888 1 3 tcp 1040 ------- 0 2.0 3.0 8 12
- 0.091616 2 0 tcp 1040 ------- 0 2.0 3.0 16 24
r 0.092616 2 0 tcp 1040 ------- 0 2.0 3.0 15 23
+ 0.092616 0 1 tcp 1040 ------- 0 2.0 3.0 15 23
r 0.09272 1 3 tcp 1040 ------- 0 2.0 3.0 8 12
+ 0.09272 3 1 ack 40 ------- 0 3.0 2.0 8 25
- 0.09272 3 1 ack 40 ------- 0 3.0 2.0 8 25
r 0.093448 2 0 tcp 1040 ------- 0 2.0 3.0 16 24
+ 0.093448 0 1 tcp 1040 ------- 0 2.0 3.0 16 24
r 0.093752 3 1 ack 40 ------- 0 3.0 2.0 8 25
+ 0.093752 1 0 ack 40 ------- 0 3.0 2.0 8 25
- 0.093752 1 0 ack 40 ------- 0 3.0 2.0 8 25
- 0.095208 0 1 tcp 1040 ------- 0 2.0 3.0 10 15
r 0.098072 1 0 ack 40 ------- 0 3.0 2.0 8 25
+ 0.098072 0 2 ack 40 ------- 0 3.0 2.0 8 25
- 0.098072 0 2 ack 40 ------- 0 3.0 2.0 8 25
r 0.099104 0 2 ack 40 ------- 0 3.0 2.0 8 25
+ 0.099104 2 0 tcp 1040 ------- 0 2.0 3.0 17 26
- 0.099104 2 0 tcp 1040 ------- 0 2.0 3.0 17 26
+ 0.099104 2 0 tcp 1040 ------- 0 2.0 3.0 18 27
r 0.099208 0 1 tcp 1040 ------- 0 2.0 3.0 9 14
+ 0.099208 1 3 tcp 1040 ------- 0 2.0 3.0 9 14
- 0.099208 1 3 tcp 1040 ------- 0 2.0 3.0 9 14
- 0.099936 2 0 tcp 1040 ------- 0 2.0 3.0 18 27
r 0.100936 2 0 tcp 1040 ------- 0 2.0 3.0 17 26
+ 0.100936 0 1 tcp 1040 ------- 0 2.0 3.0 17 26
r 0.10104 1 3 tcp 1040 ------- 0 2.0 3.0 9 14
+ 0.10104 3 1 ack 40 ------- 0 3.0 2.0 9 28
- 0.10104 3 1 ack 40 ------- 0 3.0 2.0 9 28
r 0.101768 2 0 tcp 1040 ------- 0 2.0 3.0 18 27
+ 0.101768 0 1 tcp 1040 ------- 0 2.0 3.0 18 27
r 0.102072 3 1 ack 40 ------- 0 3.0 2.0 9 28
+ 0.102072 1 0 ack 40 ------- 0 3.0 2.0 9 28
- 0.102072 1 0 ack 40 ------- 0 3.0 2.0 9 28
- 0.103528 0 1 tcp 1040 ------- 0 2.0 3.0 11 17
r 0.106392 1 0 ack 40 ------- 0 3.0 2.0 9 28
+ 0.106392 0 2 ack 40 ------- 0 3.0 2.0 9 28
- 0.106392 0 2 ack 40 ------- 0 3.0 2.0 9 28
r 0.107424 0 2 ack 40 ------- 0 3.0 2.0 9 28
+ 0.107424 2 0 tcp 1040 ------- 0 2.0 3.0 19 29
- 0.107424 2 0 tcp 1040 ------- 0 2.0 3.0 19 29
+ 0.107424 2 0 tcp 1040 ------- 0 2.0 3.0 20 30
r 0.107528 0 1 tcp 1040 ------- 0 2.0 3.0 10 15
+ 0.107528 1 3 tcp 1040 ------- 0 2.0 3.0 10 15
- 0.107528 1 3 tcp 1040 ------- 0 2.0 3.0 10 15
- 0.108256 2 0 tcp 1040 ------- 0 2.0 3.0 20 30
r 0.109256 2 0 tcp 1040 ------- 0 2.0 3.0 19 29
+ 0.109256 0 1 tcp 1040 ------- 0 2.0 3.0 19 29
r 0.10936 1 3 tcp 1040 ------- 0 2.0 3.0 10 15
+ 0.10936 3 1 ack 40 ------- 0 3.0 2.0 10 31
- 0.10936 3 1 ack 40 ------- 0 3.0 2.0 10 31
r 0.110088 2 0 tcp 1040 ------- 0 2.0 3.0 20 30
+ 0.110088 0 1 tcp 1040 ------- 0 2.0 3.0 20 30
r 0.110392 3 1 ack 40 ------- 0 3.0 2.0 10 31
+ 0.110392 1 0 ack 40 ------- 0 3.0 2.0 10 31
- 0.110392 1 0 ack 40 ------- 0 3.0 2.0 10 31
- 0.111848 0 1 tcp 1040 ------- 0 2.0 3.0 12 18
r 0.114712 1 0 ack 40 ------- 0 3.0 2.0 10 31
+ 0.114712 0 2 ack 40 ------- 0 3.0 2.0 10 31
- 0.114712 0 2 ack 40 ------- 0 3.0 2.0 10 31
r 0.115744 0 2 ack 40 ------- 0 3.0 2.0 10 31
+ 0.115744 2 0 tcp 1040 ------- 0 2.0 3.0 21 32
- 0.115744 2 0 tcp 1040 ------- 0 2.0 3.0 21 32
+ 0.115744 2 0 tcp 1040 ------- 0 2.0 3.0 22 33
r 0.115848 0 1 tcp 1040 ------- 0 2.0 3.0 11 17
+ 0.115848 1 3 tcp 1040 ------- 0 2.0 3.0 11 17
- 0.115848 1 3 tcp 1040 ------- 0 2.0 3.0 11 17
- 0.116576 2 0 tcp 1040 ------- 0 2.0 3.0 22 33
r 0.117576 2 0 tcp 1040 ------- 0 2.0 3.0 21 32
+ 0.117576 0 1 tcp 1040 ------- 0 2.0 3.0 21 32
r 0.11768 1 3 tcp 1040 ------- 0 2.0 3.0 11 17
+ 0.11768 3 1 ack 40 ------- 0 3.0 2.0 11 34
- 0.11768 3 1 ack 40 ------- 0 3.0 2.0 11 34
r 0.118408 2 0 tcp 1040 ------- 0 2.0 3.0 22 33
+ 0.118408 0 1 tcp 1040 ------- 0 2.0 3.0 22 33
r 0.118712 3 1 ack 40 ------- 0 3.0 2.0 11 34
+ 0.118712 1 0 ack 40 ------- 0 3.0 2.0 11 34
- 0.118712 1 0 ack 40 ------- 0 3.0 2.0 11 34
- 0.120168 0 1 tcp 1040 ------- 0 2.0 3.0 13 20
r 0.123032 1 0 ack 40 ------- 0 3.0 2.0 11 34
+ 0.123032 0 2 ack 40 ------- 0 3.0 2.0 11 34
- 0.123032 0 2 ack 40 ------- 0 3.0 2.0 11 34
r 0.124064 0 2 ack 40 ------- 0 3.0 2.0 11 34
+ 0.124064 2 0 tcp 1040 ------- 0 2.0 3.0 23 35
- 0.124064 2 0 tcp 1040 ------- 0 2.0 3.0 23 35
+ 0.124064 2 0 tcp 1040 ------- 0 2.0 3.0 24 36
r 0.124168 0 1 tcp 1040 ------- 0 2.0 3.0 12 18
+ 0.124168 1 3 tcp 1040 ------- 0 2.0 3.0 12 18
- 0.124168 1 3 tcp 1040 ------- 0 2.0 3.0 12 18
- 0.124896 2 0 tcp 1040 ------- 0 2.0 3.0 24 36
r 0.125896 2 0 tcp 1040 ------- 0 2.0 3.0 23 35
+ 0.125896 0 1 tcp 1040 ------- 0 2.0 3.0 23 35
r 0.126 1 3 tcp 1040 ------- 0 2.0 3.0 12 18
+ 0.126 3 1 ack 40 ------- 0 3.0 2.0 12 37
- 0.126 3 1 ack 40 ------- 0 3.0 2.0 12 37
r 0.126728 2 0 tcp 1040 ------- 0 2.0 3.0 24 36
+ 0.126728 0 1 tcp 1040 ------- 0 2.0 3.0 24 36
r 0.127032 3 1 ack 40 ------- 0 3.0 2.0 12 37
+ 0.127032 1 0 ack 40 ------- 0 3.0 2.0 12 37
- 0.127032 1 0 ack 40 ------- 0 3.0 2.0 12 37
- 0.128488 0 1 tcp 1040 ------- 0 2.0 3.0 14 21
r 0.131352 1 0 ack 40 ------- 0 3.0 2.0 12 37
+ 0.131352 0 2 ack 40 ------- 0 3.0 2.0 12 37
- 0.131352 0 2 ack 40 ------- 0 3.0 2.0 12 37
r 0.132384 0 2 ack 40 ------- 0 3.0 2.0 12 37
+ 0.132384 2 0 tcp 1040 ------- 0 2.0 3.0 25 38
- 0.132384 2 0 tcp 1040 ------- 0 2.0 3.0 25 38
+ 0.132384 2 0 tcp 1040 ------- 0 2.0 3.0 26 39
r 0.132488 0 1 tcp 1040 ------- 0 2.0 3.0 13 20
+ 0.132488 1 3 tcp 1040 ------- 0 2.0 3.0 13 20
- 0.132488 1 3 tcp 1040 ------- 0 2.0 3.0 13 20
- 0.133216 2 0 tcp 1040 ------- 0 2.0 3.0 26 39
r 0.134216 2 0 tcp 1040 ------- 0 2.0 3.0 25 38
+ 0.134216 0 1 tcp 1040 ------- 0 2.0 3.0 25 38
r 0.13432 1 3 tcp 1040 ------- 0 2.0 3.0 13 20
+ 0.13432 3 1 ack 40 ------- 0 3.0 2.0 13 40
- 0.13432 3 1 ack 40 ------- 0 3.0 2.0 13 40
r 0.135048 2 0 tcp 1040 ------- 0 2.0 3.0 26 39
+ 0.135048 0 1 tcp 1040 ------- 0 2.0 3.0 26 39
r 0.135352 3 1 ack 40 ------- 0 3.0 2.0 13 40
+ 0.135352 1 0 ack 40 ------- 0 3.0 2.0 13 40
- 0.135352 1 0 ack 40 ------- 0 3.0 2.0 13 40
- 0.136808 0 1 tcp 1040 ------- 0 2.0 3.0 15 23
r 0.139672 1 0 ack 40 ------- 0 3.0 2.0 13 40
+ 0.139672 0 2 ack 40 ------- 0 3.0 2.0 13 40
- 0.139672 0 2 ack 40 ------- 0 3.0 2.0 13 40
r 0.140704 0 2 ack 40 ------- 0 3.0 2.0 13 40
+ 0.140704 2 0 tcp 1040 ------- 0 2.0 3.0 27 41
- 0.140704 2 0 tcp 1040 ------- 0 2.0 3.0 27 41
+ 0.140704 2 0 tcp 1040 ------- 0 2.0 3.0 28 42
r 0.140808 0 1 tcp 1040 ------- 0 2.0 3.0 14 21
+ 0.140808 1 3 tcp 1040 ------- 0 2.0 3.0 14 21
- 0.140808 1 3 tcp 1040 ------- 0 2.0 3.0 14 21
- 0.141536 2 0 tcp 1040 ------- 0 2.0 3.0 28 42
r 0.142536 2 0 tcp 1040 ------- 0 2.0 3.0 27 41
+ 0.142536 0 1 tcp 1040 ------- 0 2.0 3.0 27 41
r 0.14264 1 3 tcp 1040 ------- 0 2.0 3.0 14 21
+ 0.14264 3 1 ack 40 ------- 0 3.0 2.0 14 43
- 0.14264 3 1 ack 40 ------- 0 3.0 2.0 14 43
r 0.143368 2 0 tcp 1040 ------- 0 2.0 3.0 28 42
+ 0.143368 0 1 tcp 1040 ------- 0 2.0 3.0 28 42
r 0.143672 3 1 ack 40 ------- 0 3.0 2.0 14 43
+ 0.143672 1 0 ack 40 ------- 0 3.0 2.0 14 43
- 0.143672 1 0 ack 40 ------- 0 3.0 2.0 14 43
- 0.145128 0 1 tcp 1040 ------- 0 2.0 3.0 16 24
r 0.147992 1 0 ack 40 ------- 0 3.0 2.0 14 43
+ 0.147992 0 2 ack 40 ------- 0 3.0 2.0 14 43
- 0.147992 0 2 ack 40 ------- 0 3.0 2.0 14 43
r 0.149024 0 2 ack 40 ------- 0 3.0 2.0 14 43
+ 0.149024 2 0 tcp 1040 ------- 0 2.0 3.0 29 44
- 0.149024 2 0 tcp 1040 ------- 0 2.0 3.0 29 44
+ 0.149024 2 0 tcp 1040 ------- 0 2.0 3.0 30 45
r 0.149128 0 1 tcp 1040 ------- 0 2.0 3.0 15 23
+ 0.149128 1 3 tcp 1040 ------- 0 2.0 3.0 15 23
- 0.149128 1 3 tcp 1040 ------- 0 2.0 3.0 15 23
- 0.149856 2 0 tcp 1040 ------- 0 2.0 3.0 30 45
r 0.150856 2 0 tcp 1040 ------- 0 2.0 3.0 29 44
+ 0.150856 0 1 tcp 1040 ------- 0 2.0 3.0 29 44
r 0.15096 1 3 tcp 1040 ------- 0 2.0 3.0 15 23
+ 0.15096 3 1 ack 40 ------- 0 3.0 2.0 15 46
- 0.15096 3 1 ack 40 ------- 0 3.0 2.0 15 46
r 0.151688 2 0 tcp 1040 ------- 0 2.0 3.0 30 45
+ 0.151688 0 1 tcp 1040 ------- 0 2.0 3.0 30 45
r 0.151992 3 1 ack 40 ------- 0 3.0 2.0 15 46
+ 0.151992 1 0 ack 40 ------- 0 3.0 2.0 15 46
- 0.151992 1 0 ack 40 ------- 0 3.0 2.0 15 46
- 0.153448 0 1 tcp 1040 ------- 0 2.0 3.0 17 26
r 0.156312 1 0 ack 40 ------- 0 3.0 2.0 15 46
+ 0.156312 0 2 ack 40 ------- 0 3.0 2.0 15 46
- 0.156312 0 2 ack 40 ------- 0 3.0 2.0 15 46
r 0.157344 0 2 ack 40 ------- 0 3.0 2.0 15 46
+ 0.157344 2 0 tcp 1040 ------- 0 2.0 3.0 31 47
- 0.157344 2 0 tcp 1040 ------- 0 2.0 3.0 31 47
+ 0.157344 2 0 tcp 1040 ------- 0 2.0 3.0 32 48
r 0.157448 0 1 tcp 1040 ------- 0 2.0 3.0 16 24
+ 0.157448 1 3 tcp 1040 ------- 0 2.0 3.0 16 24
- 0.157448 1 3 tcp 1040 ------- 0 2.0 3.0 16 24
- 0.158176 2 0 tcp 1040 ------- 0 2.0 3.0 32 48
r 0.159176 2 0 tcp 1040 ------- 0 2.0 3.0 31 47
+ 0.159176 0 1 tcp 1040 ------- 0 2.0 3.0 31 47
r 0.15928 1 3 tcp 1040 ------- 0 2.0 3.0 16 24
+ 0.15928 3 1 ack 40 ------- 0 3.0 2.0 16 49
- 0.15928 3 1 ack 40 ------- 0 3.0 2.0 16 49
r 0.160008 2 0 tcp 1040 ------- 0 2.0 3.0 32 48
+ 0.160008 0 1 tcp 1040 ------- 0 2.0 3.0 32 48
d 0.160008 0 1 tcp 1040 ------- 0 2.0 3.0 32 48
r 0.160312 3 1 ack 40 ------- 0 3.0 2.0 16 49
+ 0.160312 1 0 ack 40 ------- 0 3.0 2.0 16 49
- 0.160312 1 0 ack 40 ------- 0 3.0 2.0 16 49
- 0.161768 0 1 tcp 1040 ------- 0 2.0 3.0 18 27
r 0.164632 1 0 ack 40 ------- 0 3.0 2.0 16 49
+ 0.164632 0 2 ack 40 ------- 0 3.0 2.0 16 49
- 0.164632 0 2 ack 40 ------- 0 3.0 2.0 16 49
r 0.165664 0 2 ack 40 ------- 0 3.0 2.0 16 49
+ 0.165664 2 0 tcp 1040 ------- 0 2.0 3.0 33 50
- 0.165664 2 0 tcp 1040 ------- 0 2.0 3.0 33 50
+ 0.165664 2 0 tcp 1040 ------- 0 2.0 3.0 34 51
r 0.165768 0 1 tcp 1040 ------- 0 2.0 3.0 17 26
+ 0.165768 1 3 tcp 1040 ------- 0 2.0 3.0 17 26
- 0.165768 1 3 tcp 1040 ------- 0 2.0 3.0 17 26
- 0.166496 2 0 tcp 1040 ------- 0 2.0 3.0 34 51
r 0.167496 2 0 tcp 1040 ------- 0 2.0 3.0 33 50
+ 0.167496 0 1 tcp 1040 ------- 0 2.0 3.0 33 50
r 0.1676 1 3 tcp 1040 ------- 0 2.0 3.0 17 26
+ 0.1676 3 1 ack 40 ------- 0 3.0 2.0 17 52
- 0.1676 3 1 ack 40 ------- 0 3.0 2.0 17 52
r 0.168328 2 0 tcp 1040 ------- 0 2.0 3.0 34 51
+ 0.168328 0 1 tcp 1040 ------- 0 2.0 3.0 34 51
d 0.168328 0 1 tcp 1040 ------- 0 2.0 3.0 34 51
r 0.168632 3 1 ack 40 ------- 0 3.0 2.0 17 52
+ 0.168632 1 0 ack 40 ------- 0 3.0 2.0 17 52
- 0.168632 1 0 ack 40 ------- 0 3.0 2.0 17 52
- 0.170088 0 1 tcp 1040 ------- 0 2.0 3.0 19 29
r 0.172952 1 0 ack 40 ------- 0 3.0 2.0 17 52
+ 0.172952 0 2 ack 40 ------- 0 3.0 2.0 17 52
- 0.172952 0 2 ack 40 ------- 0 3.0 2.0 17 52
r 0.173984 0 2 ack 40 ------- 0 3.0 2.0 17 52
+ 0.173984 2 0 tcp 1040 ------- 0 2.0 3.0 35 53
- 0.173984 2 0 tcp 1040 ------- 0 2.0 3.0 35 53
+ 0.173984 2 0 tcp 1040 ------- 0 2.0 3.0 36 54
r 0.174088 0 1 tcp 1040 ------- 0 2.0 3.0 18 27
+ 0.174088 1 3 tcp 1040 ------- 0 2.0 3.0 18 27
- 0.174088 1 3 tcp 1040 ------- 0 2.0 3.0 18 27
- 0.174816 2 0 tcp 1040 ------- 0 2.0 3.0 36 54
r 0.175816 2 0 tcp 1040 ------- 0 2.0 3.0 35 53
+ 0.175816 0 1 tcp 1040 ------- 0 2.0 3.0 35 53
r 0.17592 1 3 tcp 1040 ------- 0 2.0 3.0 18 27
+ 0.17592 3 1 ack 40 ------- 0 3.0 2.0 18 55
- 0.17592 3 1 ack 40 ------- 0 3.0 2.0 18 55
r 0.176648 2 0 tcp 1040 ------- 0 2.0 3.0 36 54
+ 0.176648 0 1 tcp 1040 ------- 0 2.0 3.0 36 54
d 0.176648 0 1 tcp 1040 ------- 0 2.0 3.0 36 54
r 0.176952 3 1 ack 40 ------- 0 3.0 2.0 18 55
+ 0.176952 1 0 ack 40 ------- 0 3.0 2.0 18 55
- 0.176952 1 0 ack 40 ------- 0 3.0 2.0 18 55
- 0.178408 0 1 tcp 1040 ------- 0 2.0 3.0 20 30
r 0.181272 1 0 ack 40 ------- 0 3.0 2.0 18 55
+ 0.181272 0 2 ack 40 ------- 0 3.0 2.0 18 55
- 0.181272 0 2 ack 40 ------- 0 3.0 2.0 18 55
r 0.182304 0 2 ack 40 ------- 0 3.0 2.0 18 55
+ 0.182304 2 0 tcp 1040 ------- 0 2.0 3.0 37 56
- 0.182304 2 0 tcp 1040 ------- 0 2.0 3.0 37 56
+ 0.182304 2 0 tcp 1040 ------- 0 2.0 3.0 38 57
r 0.182408 0 1 tcp 1040 ------- 0 2.0 3.0 19 29
+ 0.182408 1 3 tcp 1040 ------- 0 2.0 3.0 19 29
- 0.182408 1 3 tcp 1040 ------- 0 2.0 3.0 19 29
- 0.183136 2 0 tcp 1040 ------- 0 2.0 3.0 38 57
r 0.184136 2 0 tcp 1040 ------- 0 2.0 3.0 37 56
+ 0.184136 0 1 tcp 1040 ------- 0 2.0 3.0 37 56
r 0.18424 1 3 tcp 1040 ------- 0 2.0 3.0 19 29
+ 0.18424 3 1 ack 40 ------- 0 3.0 2.0 19 58
- 0.18424 3 1 ack 40 ------- 0 3.0 2.0 19 58
r 0.184968 2 0 tcp 1040 ------- 0 2.0 3.0 38 57
+ 0.184968 0 1 tcp 1040 ------- 0 2.0 3.0 38 57
d 0.184968 0 1 tcp 1040 ------- 0 2.0 3.0 38 57
r 0.185272 3 1 ack 40 ------- 0 3.0 2.0 19 58
+ 0.185272 1 0 ack 40 ------- 0 3.0 2.0 19 58
- 0.185272 1 0 ack 40 ------- 0 3.0 2.0 19 58
- 0.186728 0 1 tcp 1040 ------- 0 2.0 3.0 21 32
r 0.189592 1 0 ack 40 ------- 0 3.0 2.0 19 58
+ 0.189592 0 2 ack 40 ------- 0 3.0 2.0 19 58
- 0.189592 0 2 ack 40 ------- 0 3.0 2.0 19 58
r 0.190624 0 2 ack 40 ------- 0 3.0 2.0 19 58
+ 0.190624 2 0 tcp 1040 ------- 0 2.0 3.0 39 59
- 0.190624 2 0 tcp 1040 ------- 0 2.0 3.0 39 59
+ 0.190624 2 0 tcp 1040 ------- 0 2.0 3.0 40 60
r 0.190728 0 1 tcp 1040 ------- 0 2.0 3.0 20 30
+ 0.190728 1 3 tcp 1040 ------- 0 2.0 3.0 20 30
- 0.190728 1 3 tcp 1040 ------- 0 2.0 3.0 20 30
- 0.191456 2 0 tcp 1040 ------- 0 2.0 3.0 40 60
r 0.192456 2 0 tcp 1040 ------- 0 2.0 3.0 39 59
+ 0.192456 0 1 tcp 1040 ------- 0 2.0 3.0 39 59
r 0.19256 1 3 tcp 1040 ------- 0 2.0 3.0 20 30
+ 0.19256 3 1 ack 40 ------- 0 3.0 2.0 20 61
- 0.19256 3 1 ack 40 ------- 0 3.0 2.0 20 61
r 0.193288 2 0 tcp 1040 ------- 0 2.0 3.0 40 60
+ 0.193288 0 1 tcp 1040 ------- 0 2.0 3.0 40 60
d 0.193288 0 1 tcp 1040 ------- 0 2.0 3.0 40 60
r 0.193592 3 1 ack 40 ------- 0 3.0 2.0 20 61
+ 0.193592 1 0 ack 40 ------- 0 3.0 2.0 20 61
- 0.193592 1 0 ack 40 ------- 0 3.0 2.0 20 61
- 0.195048 0 1 tcp 1040 ------- 0 2.0 3.0 22 33
r 0.197912 1 0 ack 40 ------- 0 3.0 2.0 20 61
+ 0.197912 0 2 ack 40 ------- 0 3.0 2.0 20 61
- 0.197912 0 2 ack 40 ------- 0 3.0 2.0 20 61
r 0.198944 0 2 ack 40 ------- 0 3.0 2.0 20 61
+ 0.198944 2 0 tcp 1040 ------- 0 2.0 3.0 41 62
- 0.198944 2 0 tcp 1040 ------- 0 2.0 3.0 41 62
+ 0.198944 2 0 tcp 1040 ------- 0 2.0 3.0 42 63
r 0.199048 0 1 tcp 1040 ------- 0 2.0 3.0 21 32
+ 0.199048 1 3 tcp 1040 ------- 0 2.0 3.0 21 32
- 0.199048 1 3 tcp 1040 ------- 0 2.0 3.0 21 32
- 0.199776 2 0 tcp 1040 ------- 0 2.0 3.0 42 63
r 0.200776 2 0 tcp 1040 ------- 0 2.0 3.0 41 62
+ 0.200776 0 1 tcp 1040 ------- 0 2.0 3.0 41 62
r 0.20088 1 3 tcp 1040 ------- 0 2.0 3.0 21 32
+ 0.20088 3 1 ack 40 ------- 0 3.0 2.0 21 64
- 0.20088 3 1 ack 40 ------- 0 3.0 2.0 21 64
r 0.201608 2 0 tcp 1040 ------- 0 2.0 3.0 42 63
+ 0.201608 0 1 tcp 1040 ------- 0 2.0 3.0 42 63
d 0.201608 0 1 tcp 1040 ------- 0 2.0 3.0 42 63
r 0.201912 3 1 ack 40 ------- 0 3.0 2.0 21 64
+ 0.201912 1 0 ack 40 ------- 0 3.0 2.0 21 64
- 0.201912 1 0 ack 40 ------- 0 3.0 2.0 21 64
- 0.203368 0 1 tcp 1040 ------- 0 2.0 3.0 23 35
r 0.206232 1 0 ack 40 ------- 0 3.0 2.0 21 64
+ 0.206232 0 2 ack 40 ------- 0 3.0 2.0 21 64
- 0.206232 0 2 ack 40 ------- 0 3.0 2.0 21 64
r 0.207264 0 2 ack 40 ------- 0 3.0 2.0 21 64
+ 0.207264 2 0 tcp 1040 ------- 0 2.0 3.0 43 65
- 0.207264 2 0 tcp 1040 ------- 0 2.0 3.0 43 65
+ 0.207264 2 0 tcp 1040 ------- 0 2.0 3.0 44 66
r 0.207368 0 1 tcp 1040 ------- 0 2.0 3.0 22 33
+ 0.207368 1 3 tcp 1040 ------- 0 2.0 3.0 22 33
- 0.207368 1 3 tcp 1040 ------- 0 2.0 3.0 22 33
- 0.208096 2 0 tcp 1040 ------- 0 2.0 3.0 44 66
r 0.209096 2 0 tcp 1040 ------- 0 2.0 3.0 43 65
+ 0.209096 0 1 tcp 1040 ------- 0 2.0 3.0 43 65
r 0.2092 1 3 tcp 1040 ------- 0 2.0 3.0 22 33
+ 0.2092 3 1 ack 40 ------- 0 3.0 2.0 22 67
- 0.2092 3 1 ack 40 ------- 0 3.0 2.0 22 67
r 0.209928 2 0 tcp 1040 ------- 0 2.0 3.0 44 66
+ 0.209928 0 1 tcp 1040 ------- 0 2.0 3.0 44 66
d 0.209928 0 1 tcp 1040 ------- 0 2.0 3.0 44 66
r 0.210232 3 1 ack 40 ------- 0 3.0 2.0 22 67
+ 0.210232 1 0 ack 40 ------- 0 3.0 2.0 22 67
- 0.210232 1 0 ack 40 ------- 0 3.0 2.0 22 67
- 0.211688 0 1 tcp 1040 ------- 0 2.0 3.0 24 36
r 0.214552 1 0 ack 40 ------- 0 3.0 2.0 22 67
+ 0.214552 0 2 ack 40 ------- 0 3.0 2.0 22 67
- 0.214552 0 2 ack 40 ------- 0 3.0 2.0 22 67
r 0.215584 0 2 ack 40 ------- 0 3.0 2.0 22 67
+ 0.215584 2 0 tcp 1040 ------- 0 2.0 3.0 45 68
- 0.215584 2 0 tcp 1040 ------- 0 2.0 3.0 45 68
+ 0.215584 2 0 tcp 1040 ------- 0 2.0 3.0 46 69
r 0.215688 0 1 tcp 1040 ------- 0 2.0 3.0 23 35
+ 0.215688 1 3 tcp 1040 ------- 0 2.0 3.0 23 35
- 0.215688 1 3 tcp 1040 ------- 0 2.0 3.0 23 35
- 0.216416 2 0 tcp 1040 ------- 0 2.0 3.0 46 69
r 0.217416 2 0 tcp 1040 ------- 0 2.0 3.0 45 68
+ 0.217416 0 1 tcp 1040 ------- 0 2.0 3.0 45 68
r 0.21752 1 3 tcp 1040 ------- 0 2.0 3.0 23 35
+ 0.21752 3 1 ack 40 ------- 0 3.0 2.0 23 70
- 0.21752 3 1 ack 40 ------- 0 3.0 2.0 23 70
r 0.218248 2 0 tcp 1040 ------- 0 2.0 3.0 46 69
+ 0.218248 0 1 tcp 1040 ------- 0 2.0 3.0 46 69
d 0.218248 0 1 tcp 1040 ------- 0 2.0 3.0 46 69
r 0.218552 3 1 ack 40 ------- 0 3.0 2.0 23 70
+ 0.218552 1 0 ack 40 ------- 0 3.0 2.0 23 70
- 0.218552 1 0 ack 40 ------- 0 3.0 2.0 23 70
- 0.220008 0 1 tcp 1040 ------- 0 2.0 3.0 25 38
r 0.222872 1 0 ack 40 ------- 0 3.0 2.0 23 70
+ 0.222872 0 2 ack 40 ------- 0 3.0 2.0 23 70
- 0.222872 0 2 ack 40 ------- 0 3.0 2.0 23 70
r 0.223904 0 2 ack 40 ------- 0 3.0 2.0 23 70
+ 0.223904 2 0 tcp 1040 ------- 0 2.0 3.0 47 71
- 0.223904 2 0 tcp 1040 ------- 0 2.0 3.0 47 71
r 0.224008 0 1 tcp 1040 ------- 0 2.0 3.0 24 36
+ 0.224008 1 3 tcp 1040 ------- 0 2.0 3.0 24 36
- 0.224008 1 3 tcp 1040 ------- 0 2.0 3.0 24 36
r 0.225736 2 0 tcp 1040 ------- 0 2.0 3.0 47 71
+ 0.225736 0 1 tcp 1040 ------- 0 2.0 3.0 47 71
r 0.22584 1 3 tcp 1040 ------- 0 2.0 3.0 24 36
+ 0.22584 3 1 ack 40 ------- 0 3.0 2.0 24 72
- 0.22584 3 1 ack 40 ------- 0 3.0 2.0 24 72
r 0.226872 3 1 ack 40 ------- 0 3.0 2.0 24 72
+ 0.226872 1 0 ack 40 ------- 0 3.0 2.0 24 72
- 0.226872 1 0 ack 40 ------- 0 3.0 2.0 24 72
- 0.228328 0 1 tcp 1040 ------- 0 2.0 3.0 26 39
r 0.231192 1 0 ack 40 ------- 0 3.0 2.0 24 72
+ 0.231192 0 2 ack 40 ------- 0 3.0 2.0 24 72
- 0.231192 0 2 ack 40 ------- 0 3.0 2.0 24 72
r 0.232224 0 2 ack 40 ------- 0 3.0 2.0 24 72
+ 0.232224 2 0 tcp 1040 ------- 0 2.0 3.0 48 73
- 0.232224 2 0 tcp 1040 ------- 0 2.0 3.0 48 73
r 0.232328 0 1 tcp 1040 ------- 0 2.0 3.0 25 38
+ 0.232328 1 3 tcp 1040 ------- 0 2.0 3.0 25 38
- 0.232328 1 3 tcp 1040 ------- 0 2.0 3.0 25 38
r 0.234056 2 0 tcp 1040 ------- 0 2.0 3.0 48 73
+ 0.234056 0 1 tcp 1040 ------- 0 2.0 3.0 48 73
r 0.23416 1 3 tcp 1040 ------- 0 2.0 3.0 25 38
+ 0.23416 3 1 ack 40 ------- 0 3.0 2.0 25 74
- 0.23416 3 1 ack 40 ------- 0 3.0 2.0 25 74
r 0.235192 3 1 ack 40 ------- 0 3.0 2.0 25 74
+ 0.235192 1 0 ack 40 ------- 0 3.0 2.0 25 74
- 0.235192 1 0 ack 40 ------- 0 3.0 2.0 25 74
- 0.236648 0 1 tcp 1040 ------- 0 2.0 3.0 27 41
r 0.239512 1 0 ack 40 ------- 0 3.0 2.0 25 74
+ 0.239512 0 2 ack 40 ------- 0 3.0 2.0 25 74
- 0.239512 0 2 ack 40 ------- 0 3.0 2.0 25 74
r 0.240544 0 2 ack 40 ------- 0 3.0 2.0 25 74
+ 0.240544 2 0 tcp 1040 ------- 0 2.0 3.0 49 75
- 0.240544 2 0 tcp 1040 ------- 0 2.0 3.0 49 75
r 0.240648 0 1 tcp 1040 ------- 0 2.0 3.0 26 39
+ 0.240648 1 3 tcp 1040 ------- 0 2.0 3.0 26 39
- 0.240648 1 3 tcp 1040 ------- 0 2.0 3.0 26 39
r 0.242376 2 0 tcp 1040 ------- 0 2.0 3.0 49 75
+ 0.242376 0 1 tcp 1040 ------- 0 2.0 3.0 49 75
r 0.24248 1 3 tcp 1040 ------- 0 2.0 3.0 26 39
+ 0.24248 3 1 ack 40 ------- 0 3.0 2.0 26 76
- 0.24248 3 1 ack 40 ------- 0 3.0 2.0 26 76
r 0.243512 3 1 ack 40 ------- 0 3.0 2.0 26 76
+ 0.243512 1 0 ack 40 ------- 0 3.0 2.0 26 76
- 0.243512 1 0 ack 40 ------- 0 3.0 2.0 26 76
- 0.244968 0 1 tcp 1040 ------- 0 2.0 3.0 28 42
r 0.247832 1 0 ack 40 ------- 0 3.0 2.0 26 76
+ 0.247832 0 2 ack 40 ------- 0 3.0 2.0 26 76
- 0.247832 0 2 ack 40 ------- 0 3.0 2.0 26 76
r 0.248864 0 2 ack 40 ------- 0 3.0 2.0 26 76
+ 0.248864 2 0 tcp 1040 ------- 0 2.0 3.0 50 77
- 0.248864 2 0 tcp 1040 ------- 0 2.0 3.0 50 77
r 0.248968 0 1 tcp 1040 ------- 0 2.0 3.0 27 41
+ 0.248968 1 3 tcp 1040 ------- 0 2.0 3.0 27 41
- 0.248968 1 3 tcp 1040 ------- 0 2.0 3.0 27 41
r 0.250696 2 0 tcp 1040 ------- 0 2.0 3.0 50 77
+ 0.250696 0 1 tcp 1040 ------- 0 2.0 3.0 50 77
r 0.2508 1 3 tcp 1040 ------- 0 2.0 3.0 27 41
+ 0.2508 3 1 ack 40 ------- 0 3.0 2.0 27 78
- 0.2508 3 1 ack 40 ------- 0 3.0 2.0 27 78
r 0.251832 3 1 ack 40 ------- 0 3.0 2.0 27 78
+ 0.251832 1 0 ack 40 ------- 0 3.0 2.0 27 78
- 0.251832 1 0 ack 40 ------- 0 3.0 2.0 27 78
- 0.253288 0 1 tcp 1040 ------- 0 2.0 3.0 29 44
r 0.256152 1 0 ack 40 ------- 0 3.0 2.0 27 78
+ 0.256152 0 2 ack 40 ------- 0 3.0 2.0 27 78
- 0.256152 0 2 ack 40 ------- 0 3.0 2.0 27 78
r 0.257184 0 2 ack 40 ------- 0 3.0 2.0 27 78
+ 0.257184 2 0 tcp 1040 ------- 0 2.0 3.0 51 79
- 0.257184 2 0 tcp 1040 ------- 0 2.0 3.0 51 79
r 0.257288 0 1 tcp 1040 ------- 0 2.0 3.0 28 42
+ 0.257288 1 3 tcp 1040 ------- 0 2.0 3.0 28 42
- 0.257288 1 3 tcp 1040 ------- 0 2.0 3.0 28 42
r 0.259016 2 0 tcp 1040 ------- 0 2.0 3.0 51 79
+ 0.259016 0 1 tcp 1040 ------- 0 2.0 3.0 51 79
r 0.25912 1 3 tcp 1040 ------- 0 2.0 3.0 28 42
+ 0.25912 3 1 ack 40 ------- 0 3.0 2.0 28 80
- 0.25912 3 1 ack 40 ------- 0 3.0 2.0 28 80
r 0.260152 3 1 ack 40 ------- 0 3.0 2.0 28 80
+ 0.260152 1 0 ack 40 ------- 0 3.0 2.0 28 80
- 0.260152 1 0 ack 40 ------- 0 3.0 2.0 28 80
- 0.261608 0 1 tcp 1040 ------- 0 2.0 3.0 30 45
r 0.264472 1 0 ack 40 ------- 0 3.0 2.0 28 80
+ 0.264472 0 2 ack 40 ------- 0 3.0 2.0 28 80
- 0.264472 0 2 ack 40 ------- 0 3.0 2.0 28 80
r 0.265504 0 2 ack 40 ------- 0 3.0 2.0 28 80
+ 0.265504 2 0 tcp 1040 ------- 0 2.0 3.0 52 81
- 0.265504 2 0 tcp 1040 ------- 0 2.0 3.0 52 81
r 0.265608 0 1 tcp 1040 ------- 0 2.0 3.0 29 44
+ 0.265608 1 3 tcp 1040 ------- 0 2.0 3.0 29 44
- 0.265608 1 3 tcp 1040 ------- 0 2.0 3.0 29 44
r 0.267336 2 0 tcp 1040 ------- 0 2.0 3.0 52 81
+ 0.267336 0 1 tcp 1040 ------- 0 2.0 3.0 52 81
r 0.26744 1 3 tcp 1040 ------- 0 2.0 3.0 29 44
+ 0.26744 3 1 ack 40 ------- 0 3.0 2.0 29 82
- 0.26744 3 1 ack 40 ------- 0 3.0 2.0 29 82
r 0.268472 3 1 ack 40 ------- 0 3.0 2.0 29 82
+ 0.268472 1 0 ack 40 ------- 0 3.0 2.0 29 82
- 0.268472 1 0 ack 40 ------- 0 3.0 2.0 29 82
- 0.269928 0 1 tcp 1040 ------- 0 2.0 3.0 31 47
r 0.272792 1 0 ack 40 ------- 0 3.0 2.0 29 82
+ 0.272792 0 2 ack 40 ------- 0 3.0 2.0 29 82
- 0.272792 0 2 ack 40 ------- 0 3.0 2.0 29 82
r 0.273824 0 2 ack 40 ------- 0 3.0 2.0 29 82
+ 0.273824 2 0 tcp 1040 ------- 0 2.0 3.0 53 83
- 0.273824 2 0 tcp 1040 ------- 0 2.0 3.0 53 83
r 0.273928 0 1 tcp 1040 ------- 0 2.0 3.0 30 45