s -t 0.001560381 -Hs 0 -Hd -1 -Ni 0 -Nx 350.00 -Ny 500.00 -Nz 0.00 -Ne -1.000000 -Nl RTR -Nw --- -Ma 0 -Md 0 -Ms 0 -Mt 0 -Is 0.255 -Id -1.255 -It message -Il 32 -If 0 -Ii 0 -Iv 32 
r -t 0.002380881 -Hs 1 -Hd -1 -Ni 1 -Nx 500.00 -Ny 500.00 -Nz 0.00 -Ne -1.000000 -Nl RTR -Nw --- -Ma 0 -Md ffffffff -Ms 0 -Mt 800 -Is 0.255 -Id -1.255 -It message -Il 32 -If 0 -Ii 0 -Iv 32 
s -t 0.036574082 -Hs 2 -Hd -1 -Ni 2 -Nx 650.00 -Ny 500.00 -Nz 0.00 -Ne -1.000000 -Nl RTR -Nw --- -Ma 0 -Md 0 -Ms 0 -Mt 0 -Is 2.255 -Id -1.255 -It message -Il 32 -If 0 -Ii 1 -Iv 32 
r -t 0.037754582 -Hs 1 -Hd -1 -Ni 1 -Nx 500.00 -Ny 500.00 -Nz 0.00 -Ne -1.000000 -Nl RTR -Nw --- -Ma 0 -Md ffffffff -Ms 2 -Mt 800 -Is 2.255 -Id -1.255 -It message -Il 32 -If 0 -Ii 1 -Iv 32 
s -t 1.120124667 -Hs 1 -Hd -1 -Ni 1 -Nx 500.00 -Ny 500.00 -Nz 0.00 -Ne -1.000000 -Nl RTR -Nw --- -Ma 0 -Md 0 -Ms 0 -Mt 0 -Is 1.255 -Id -1.255 -It message -Il 32 -If 0 -Ii 2 -Iv 32 
r -t 1.121485167 -Hs 0 -Hd -1 -Ni 0 -Nx 350.00 -Ny 500.00 -Nz 0.00 -Ne -1.000000 -Nl RTR -Nw --- -Ma 0 -Md ffffffff -Ms 1 -Mt 800 -Is 1.255 -Id -1.255 -It message -Il 32 -If 0 -Ii 2 -Iv 32 
r -t 1.121485167 -Hs 2 -Hd -1 -Ni 2 -Nx 650.00 -Ny 500.00 -Nz 0.00 -Ne -1.000000 -Nl RTR -Nw --- -Ma 0 -Md ffffffff -Ms 1 -Mt 800 -Is 1.255 -Id -1.255 -It message -Il 32 -If 0 -Ii 2 -Iv 32 
s -t 12.003518964 -Hs 1 -Hd -1 -Ni 1 -Nx 500.00 -Ny 500.00 -Nz 0.00 -Ne -1.000000 -Nl RTR -Nw --- -Ma 0 -Md 0 -Ms 0 -Mt 0 -Is 1.255 -Id -1.255 -It message -Il 32 -If 0 -Ii 3 -Iv 32 
r -t 12.004579464 -Hs 0 -Hd -1 -Ni 0 -Nx 350.00 -Ny 500.00 -Nz 0.00 -Ne -1.000000 -Nl RTR -Nw --- -Ma 0 -Md ffffffff -Ms 1 -Mt 800 -Is 1.255 -Id -1.255 -It message -Il 32 -If 0 -Ii 3 -Iv 32 
r -t 12.004579464 -Hs 2 -Hd -1 -Ni 2 -Nx 650.00 -Ny 500.00 -Nz 0.00 -Ne -1.000000 -Nl RTR -Nw --- -Ma 0 -Md ffffffff -Ms 1 -Mt 800 -Is 1.255 -Id -1.255 -It message -Il 32 -If 0 -Ii 3 -Iv 32 
s -t 12.159913943 -Hs 2 -Hd -1 -Ni 2 -Nx 650.00 -Ny 500.00 -Nz 0.00 -Ne -1.000000 -Nl RTR -Nw --- -Ma 0 -Md 0 -Ms 0 -Mt 0 -Is 2.255 -Id -1.255 -It message -Il 32 -If 0 -Ii 4 -Iv 32 
r -t 12.161054443 -Hs 1 -Hd -1 -Ni 1 -Nx 500.00 -Ny 500.00 -Nz 0.00 -Ne -1.000000 -Nl RTR -Nw --- -Ma 0 -Md ffffffff -Ms 2 -Mt 800 -Is 2.255 -Id -1.255 -It message -Il 32 -If 0 -Ii 4 -Iv 32 
s -t 12.907660217 -Hs 0 -Hd -1 -Ni 0 -Nx 350.00 -Ny 500.00 -Nz 0.00 -Ne -1.000000 -Nl RTR -Nw --- -Ma 0 -Md 0 -Ms 0 -Mt 0 -Is 0.255 -Id -1.255 -It message -Il 32 -If 0 -Ii 5 -Iv 32 
r -t 12.908720717 -Hs 1 -Hd -1 -Ni 1 -Nx 500.00 -Ny 500.00 -Nz 0.00 -Ne -1.000000 -Nl RTR -Nw --- -Ma 0 -Md ffffffff -Ms 0 -Mt 800 -Is 0.255 -Id -1.255 -It message -Il 32 -If 0 -Ii 5 -Iv 32 
s -t 12.984229775 -Hs 1 -Hd -1 -Ni 1 -Nx 500.00 -Ny 500.00 -Nz 0.00 -Ne -1.000000 -Nl RTR -Nw --- -Ma 0 -Md 0 -Ms 0 -Mt 0 -Is 1.255 -Id -1.255 -It message -Il 32 -If 0 -Ii 6 -Iv 32 
r -t 12.985450275 -Hs 0 -Hd -1 -Ni 0 -Nx 350.00 -Ny 500.00 -Nz 0.00 -Ne -1.000000 -Nl RTR -Nw --- -Ma 0 -Md ffffffff -Ms 1 -Mt 800 -Is 1.255 -Id -1.255 -It message -Il 32 -If 0 -Ii 6 -Iv 32 
r -t 12.985450275 -Hs 2 -Hd -1 -Ni 2 -Nx 650.00 -Ny 500.00 -Nz 0.00 -Ne -1.000000 -Nl RTR -Nw --- -Ma 0 -Md ffffffff -Ms 1 -Mt 800 -Is 1.255 -Id -1.255 -It message -Il 32 -If 0 -Ii 6 -Iv 32 
s -t 23.763598852 -Hs 2 -Hd -1 -Ni 2 -Nx 650.00 -Ny 500.00 -Nz 0.00 -Ne -1.000000 -Nl RTR -Nw --- -Ma 0 -Md 0 -Ms 0 -Mt 0 -Is 2.255 -Id -1.255 -It message -Il 44 -If 0 -Ii 10 -Iv 32 
r -t 23.764815352 -Hs 1 -Hd -1 -Ni 1 -Nx 500.00 -Ny 500.00 -Nz 0.00 -Ne -1.000000 -Nl RTR -Nw --- -Ma 0 -Md ffffffff -Ms 2 -Mt 800 -Is 2.255 -Id -1.255 -It message -Il 44 -If 0 -Ii 10 -Iv 32 
s -t 24.770236050 -Hs 2 -Hd -1 -Ni 2 -Nx 650.00 -Ny 500.00 -Nz 0.00 -Ne -1.000000 -Nl RTR -Nw --- -Ma 0 -Md 0 -Ms 0 -Mt 0 -Is 2.255 -Id -1.255 -It message -Il 32 -If 0 -Ii 11 -Iv 32 
r -t 24.771136550 -Hs 1 -Hd -1 -Ni 1 -Nx 500.00 -Ny 500.00 -Nz 0.00 -Ne -1.000000 -Nl RTR -Nw --- -Ma 0 -Md ffffffff -Ms 2 -Mt 800 -Is 2.255 -Id -1.255 -It message -Il 32 -If 0 -Ii 11 -Iv 32 
s -t 25.691692698 -Hs 0 -Hd -1 -Ni 0 -Nx 350.00 -Ny 500.00 -Nz 0.00 -Ne -1.000000 -Nl RTR -Nw --- -Ma 0 -Md 0 -Ms 0 -Mt 0 -Is 0.255 -Id -1.255 -It message -Il 44 -If 0 -Ii 12 -Iv 32 
r -t 25.693129198 -Hs 1 -Hd -1 -Ni 1 -Nx 500.00 -Ny 500.00 -Nz 0.00 -Ne -1.000000 -Nl RTR -Nw --- -Ma 0 -Md ffffffff -Ms 0 -Mt 800 -Is 0.255 -Id -1.255 -It message -Il 44 -If 0 -Ii 12 -Iv 32 
s -t 27.468972488 -Hs 1 -Hd -1 -Ni 1 -Nx 500.00 -Ny 500.00 -Nz 0.00 -Ne -1.000000 -Nl RTR -Nw --- -Ma 0 -Md 0 -Ms 0 -Mt 0 -Is 1.255 -Id -1.255 -It message -Il 32 -If 0 -Ii 13 -Iv 32 
r -t 27.469852988 -Hs 0 -Hd -1 -Ni 0 -Nx 350.00 -Ny 500.00 -Nz 0.00 -Ne -1.000000 -Nl RTR -Nw --- -Ma 0 -Md ffffffff -Ms 1 -Mt 800 -Is 1.255 -Id -1.255 -It message -Il 32 -If 0 -Ii 13 -Iv 32 
r -t 27.469852988 -Hs 2 -Hd -1 -Ni 2 -Nx 650.00 -Ny 500.00 -Nz 0.00 -Ne -1.000000 -Nl RTR -Nw --- -Ma 0 -Md ffffffff -Ms 1 -Mt 800 -Is 1.255 -Id -1.255 -It message -Il 32 -If 0 -Ii 13 -Iv 32 
s -t 37.646220553 -Hs 0 -Hd -1 -Ni 0 -Nx 350.00 -Ny 500.00 -Nz 0.00 -Ne -1.000000 -Nl RTR -Nw --- -Ma 0 -Md 0 -Ms 0 -Mt 0 -Is 0.255 -Id -1.255 -It message -Il 44 -If 0 -Ii 14 -Iv 32 
r -t 37.647417053 -Hs 1 -Hd -1 -Ni 1 -Nx 500.00 -Ny 500.00 -Nz 0.00 -Ne -1.000000 -Nl RTR -Nw --- -Ma 0 -Md ffffffff -Ms 0 -Mt 800 -Is 0.255 -Id -1.255 -It message -Il 44 -If 0 -Ii 14 -Iv 32 
s -t 38.205406103 -Hs 2 -Hd -1 -Ni 2 -Nx 650.00 -Ny 500.00 -Nz 0.00 -Ne -1.000000 -Nl RTR -Nw --- -Ma 0 -Md 0 -Ms 0 -Mt 0 -Is 2.255 -Id -1.255 -It message -Il 56 -If 0 -Ii 15 -Iv 32 
r -t 38.206418603 -Hs 1 -Hd -1 -Ni 1 -Nx 500.00 -Ny 500.00 -Nz 0.00 -Ne -1.000000 -Nl RTR -Nw --- -Ma 0 -Md ffffffff -Ms 2 -Mt 800 -Is 2.255 -Id -1.255 -It message -Il 56 -If 0 -Ii 15 -Iv 32 
s -t 39.132794686 -Hs 1 -Hd -1 -Ni 1 -Nx 500.00 -Ny 500.00 -Nz 0.00 -Ne -1.000000 -Nl RTR -Nw --- -Ma 0 -Md 0 -Ms 0 -Mt 0 -Is 1.255 -Id -1.255 -It message -Il 32 -If 0 -Ii 16 -Iv 32 
r -t 39.133835186 -Hs 0 -Hd -1 -Ni 0 -Nx 350.00 -Ny 500.00 -Nz 0.00 -Ne -1.000000 -Nl RTR -Nw --- -Ma 0 -Md ffffffff -Ms 1 -Mt 800 -Is 1.255 -Id -1.255 -It message -Il 32 -If 0 -Ii 16 -Iv 32 
r -t 39.133835186 -Hs 2 -Hd -1 -Ni 2 -Nx 650.00 -Ny 500.00 -Nz 0.00 -Ne -1.000000 -Nl RTR -Nw --- -Ma 0 -Md ffffffff -Ms 1 -Mt 800 -Is 1.255 -Id -1.255 -It message -Il 32 -If 0 -Ii 16 -Iv 32 
s -t 50.152278793 -Hs 0 -Hd -1 -Ni 0 -Nx 350.00 -Ny 500.00 -Nz 0.00 -Ne -1.000000 -Nl RTR -Nw --- -Ma 0 -Md 0 -Ms 0 -Mt 0 -Is 0.255 -Id -1.255 -It message -Il 44 -If 0 -Ii 17 -Iv 32 
r -t 50.153435293 -Hs 1 -Hd -1 -Ni 1 -Nx 500.00 -Ny 500.00 -Nz 0.00 -Ne -1.000000 -Nl RTR -Nw --- -Ma 0 -Md ffffffff -Ms 0 -Mt 800 -Is 0.255 -Id -1.255 -It message -Il 44 -If 0 -Ii 17 -Iv 32 
s -t 52.080587722 -Hs 2 -Hd -1 -Ni 2 -Nx 650.00 -Ny 500.00 -Nz 0.00 -Ne -1.000000 -Nl RTR -Nw --- -Ma 0 -Md 0 -Ms 0 -Mt 0 -Is 2.255 -Id -1.255 -It message -Il 56 -If 0 -Ii 18 -Iv 32 
r -t 52.082080222 -Hs 1 -Hd -1 -Ni 1 -Nx 500.00 -Ny 500.00 -Nz 0.00 -Ne -1.000000 -Nl RTR -Nw --- -Ma 0 -Md ffffffff -Ms 2 -Mt 800 -Is 2.255 -Id -1.255 -It message -Il 56 -If 0 -Ii 18 -Iv 32 
s -t 52.470585287 -Hs 1 -Hd -1 -Ni 1 -Nx 500.00 -Ny 500.00 -Nz 0.00 -Ne -1.000000 -Nl RTR -Nw --- -Ma 0 -Md 0 -Ms 0 -Mt 0 -Is 1.255 -Id -1.255 -It message -Il 32 -If 0 -Ii 19 -Iv 32 
r -t 52.471445787 -Hs 0 -Hd -1 -Ni 0 -Nx 350.00 -Ny 500.00 -Nz 0.00 -Ne -1.000000 -Nl RTR -Nw --- -Ma 0 -Md ffffffff -Ms 1 -Mt 800 -Is 1.255 -Id -1.255 -It message -Il 32 -If 0 -Ii 19 -Iv 32 
r -t 52.471445787 -Hs 2 -Hd -1 -Ni 2 -Nx 650.00 -Ny 500.00 -Nz 0.00 -Ne -1.000000 -Nl RTR -Nw --- -Ma 0 -Md ffffffff -Ms 1 -Mt 800 -Is 1.255 -Id -1.255 -It message -Il 32 -If 0 -Ii 19 -Iv 32 
s -t 62.105960128 -Hs 0 -Hd -1 -Ni 0 -Nx 350.00 -Ny 500.00 -Nz 0.00 -Ne -1.000000 -Nl RTR -Nw --- -Ma 0 -Md 0 -Ms 0 -Mt 0 -Is 0.255 -Id -1.255 -It message -Il 44 -If 0 -Ii 20 -Iv 32 
r -t 62.106976628 -Hs 1 -Hd -1 -Ni 1 -Nx 500.00 -Ny 500.00 -Nz 0.00 -Ne -1.000000 -Nl RTR -Nw --- -Ma 0 -Md ffffffff -Ms 0 -Mt 800 -Is 0.255 -Id -1.255 -It message -Il 44 -If 0 -Ii 20 -Iv 32 
s -t 64.054295657 -Hs 1 -Hd -1 -Ni 1 -Nx 500.00 -Ny 500.00 -Nz 0.00 -Ne -1.000000 -Nl RTR -Nw --- -Ma 0 -Md 0 -Ms 0 -Mt 0 -Is 1.255 -Id -1.255 -It message -Il 44 -If 0 -Ii 21 -Iv 32 
r -t 64.055272157 -Hs 0 -Hd -1 -Ni 0 -Nx 350.00 -Ny 500.00 -Nz 0.00 -Ne -1.000000 -Nl RTR -Nw --- -Ma 0 -Md ffffffff -Ms 1 -Mt 800 -Is 1.255 -Id -1.255 -It message -Il 44 -If 0 -Ii 21 -Iv 32 
r -t 64.055272157 -Hs 2 -Hd -1 -Ni 2 -Nx 650.00 -Ny 500.00 -Nz 0.00 -Ne -1.000000 -Nl RTR -Nw --- -Ma 0 -Md ffffffff -Ms 1 -Mt 800 -Is 1.255 -Id -1.255 -It message -Il 44 -If 0 -Ii 21 -Iv 32 
s -t 64.106859834 -Hs 2 -Hd -1 -Ni 2 -Nx 650.00 -Ny 500.00 -Nz 0.00 -Ne -1.000000 -Nl RTR -Nw --- -Ma 0 -Md 0 -Ms 0 -Mt 0 -Is 2.255 -Id -1.255 -It message -Il 44 -If 0 -Ii 22 -Iv 32 
r -t 64.107836334 -Hs 1 -Hd -1 -Ni 1 -Nx 500.00 -Ny 500.00 -Nz 0.00 -Ne -1.000000 -Nl RTR -Nw --- -Ma 0 -Md ffffffff -Ms 2 -Mt 800 -Is 2.255 -Id -1.255 -It message -Il 44 -If 0 -Ii 22 -Iv 32 
s -t 75.349239229 -Hs 0 -Hd -1 -Ni 0 -Nx 350.00 -Ny 500.00 -Nz 0.00 -Ne -1.000000 -Nl RTR -Nw --- -Ma 0 -Md 0 -Ms 0 -Mt 0 -Is 0.255 -Id -1.255 -It message -Il 44 -If 0 -Ii 23 -Iv 32 
r -t 75.350595729 -Hs 1 -Hd -1 -Ni 1 -Nx 500.00 -Ny 500.00 -Nz 0.00 -Ne -1.000000 -Nl RTR -Nw --- -Ma 0 -Md ffffffff -Ms 0 -Mt 800 -Is 0.255 -Id -1.255 -It message -Il 44 -If 0 -Ii 23 -Iv 32 
s -t 76.352313903 -Hs 0 -Hd -1 -Ni 0 -Nx 350.00 -Ny 500.00 -Nz 0.00 -Ne -1.000000 -Nl RTR -Nw --- -Ma 0 -Md 0 -Ms 0 -Mt 0 -Is 0.255 -Id -1.255 -It message -Il 32 -If 0 -Ii 24 -Iv 32 
r -t 76.353434403 -Hs 1 -Hd -1 -Ni 1 -Nx 500.00 -Ny 500.00 -Nz 0.00 -Ne -1.000000 -Nl RTR -Nw --- -Ma 0 -Md ffffffff -Ms 0 -Mt 800 -Is 0.255 -Id -1.255 -It message -Il 32 -If 0 -Ii 24 -Iv 32 
s -t 77.551496402 -Hs 2 -Hd -1 -Ni 2 -Nx 650.00 -Ny 500.00 -Nz 0.00 -Ne -1.000000 -Nl RTR -Nw --- -Ma 0 -Md 0 -Ms 0 -Mt 0 -Is 2.255 -Id -1.255 -It message -Il 56 -If 0 -Ii 25 -Iv 32 
r -t 77.553088902 -Hs 1 -Hd -1 -Ni 1 -Nx 500.00 -Ny 500.00 -Nz 0.00 -Ne -1.000000 -Nl RTR -Nw --- -Ma 0 -Md ffffffff -Ms 2 -Mt 800 -Is 2.255 -Id -1.255 -It message -Il 56 -If 0 -Ii 25 -Iv 32 
s -t 78.360736379 -Hs 1 -Hd -1 -Ni 1 -Nx 500.00 -Ny 500.00 -Nz 0.00 -Ne -1.000000 -Nl RTR -Nw --- -Ma 0 -Md 0 -Ms 0 -Mt 0 -Is 1.255 -Id -1.255 -It message -Il 32 -If 0 -Ii 26 -Iv 32 
r -t 78.361996879 -Hs 0 -Hd -1 -Ni 0 -Nx 350.00 -Ny 500.00 -Nz 0.00 -Ne -1.000000 -Nl RTR -Nw --- -Ma 0 -Md ffffffff -Ms 1 -Mt 800 -Is 1.255 -Id -1.255 -It message -Il 32 -If 0 -Ii 26 -Iv 32 
r -t 78.361996879 -Hs 2 -Hd -1 -Ni 2 -Nx 650.00 -Ny 500.00 -Nz 0.00 -Ne -1.000000 -Nl RTR -Nw --- -Ma 0 -Md ffffffff -Ms 1 -Mt 800 -Is 1.255 -Id -1.255 -It message -Il 32 -If 0 -Ii 26 -Iv 32 
s -t 88.693363318 -Hs 0 -Hd -1 -Ni 0 -Nx 350.00 -Ny 500.00 -Nz 0.00 -Ne -1.000000 -Nl RTR -Nw --- -Ma 0 -Md 0 -Ms 0 -Mt 0 -Is 0.255 -Id -1.255 -It message -Il 56 -If 0 -Ii 27 -Iv 32 
r -t 88.694595818 -Hs 1 -Hd -1 -Ni 1 -Nx 500.00 -Ny 500.00 -Nz 0.00 -Ne -1.000000 -Nl RTR -Nw --- -Ma 0 -Md ffffffff -Ms 0 -Mt 800 -Is 0.255 -Id -1.255 -It message -Il 56 -If 0 -Ii 27 -Iv 32 
s -t 90.205862170 -Hs 2 -Hd -1 -Ni 2 -Nx 650.00 -Ny 500.00 -Nz 0.00 -Ne -1.000000 -Nl RTR -Nw --- -Ma 0 -Md 0 -Ms 0 -Mt 0 -Is 2.255 -Id -1.255 -It message -Il 56 -If 0 -Ii 28 -Iv 32 
r -t 90.207194670 -Hs 1 -Hd -1 -Ni 1 -Nx 500.00 -Ny 500.00 -Nz 0.00 -Ne -1.000000 -Nl RTR -Nw --- -Ma 0 -Md ffffffff -Ms 2 -Mt 800 -Is 2.255 -Id -1.255 -It message -Il 56 -If 0 -Ii 28 -Iv 32 
s -t 92.216570420 -Hs 1 -Hd -1 -Ni 1 -Nx 500.00 -Ny 500.00 -Nz 0.00 -Ne -1.000000 -Nl RTR -Nw --- -Ma 0 -Md 0 -Ms 0 -Mt 0 -Is 1.255 -Id -1.255 -It message -Il 32 -If 0 -Ii 29 -Iv 32 
r -t 92.217550920 -Hs 0 -Hd -1 -Ni 0 -Nx 350.00 -Ny 500.00 -Nz 0.00 -Ne -1.000000 -Nl RTR -Nw --- -Ma 0 -Md ffffffff -Ms 1 -Mt 800 -Is 1.255 -Id -1.255 -It message -Il 32 -If 0 -Ii 29 -Iv 32 
r -t 92.217550920 -Hs 2 -Hd -1 -Ni 2 -Nx 650.00 -Ny 500.00 -Nz 0.00 -Ne -1.000000 -Nl RTR -Nw --- -Ma 0 -Md ffffffff -Ms 1 -Mt 800 -Is 1.255 -Id -1.255 -It message -Il 32 -If 0 -Ii 29 -Iv 32 
s -t 100.000000000 -Hs 0 -Hd -2 -Ni 0 -Nx 350.00 -Ny 500.00 -Nz 0.00 -Ne -1.000000 -Nl AGT -Nw --- -Ma 0 -Md 0 -Ms 0 -Mt 0 -Is 0.0 -Id 2.0 -It cbr -Il 200 -If 1 -Ii 30 -Iv 32 -Pn cbr -Pi 0 -Pf 0 -Po 2 
r -t 100.000000000 -Hs 0 -Hd -2 -Ni 0 -Nx 350.00 -Ny 500.00 -Nz 0.00 -Ne -1.000000 -Nl RTR -Nw --- -Ma 0 -Md 0 -Ms 0 -Mt 0 -Is 0.0 -Id 2.0 -It cbr -Il 200 -If 1 -Ii 30 -Iv 32 -Pn cbr -Pi 0 -Pf 0 -Po 2 
s -t 100.000000000 -Hs 0 -Hd 1 -Ni 0 -Nx 350.00 -Ny 500.00 -Nz 0.00 -Ne -1.000000 -Nl RTR -Nw --- -Ma 0 -Md 0 -Ms 0 -Mt 0 -Is 0.0 -Id 2.0 -It cbr -Il 220 -If 1 -Ii 30 -Iv 32 -Pn cbr -Pi 0 -Pf 0 -Po 2 
r -t 100.006134500 -Hs 1 -Hd 1 -Ni 1 -Nx 500.00 -Ny 500.00 -Nz 0.00 -Ne -1.000000 -Nl RTR -Nw --- -Ma 13a -Md 1 -Ms 0 -Mt 800 -Is 0.0 -Id 2.0 -It cbr -Il 220 -If 1 -Ii 30 -Iv 32 -Pn cbr -Pi 0 -Pf 1 -Po 2 
f -t 100.006134500 -Hs 1 -Hd 2 -Ni 1 -Nx 500.00 -Ny 500.00 -Nz 0.00 -Ne -1.000000 -Nl RTR -Nw --- -Ma 13a -Md 1 -Ms 0 -Mt 800 -Is 0.0 -Id 2.0 -It cbr -Il 220 -If 1 -Ii 30 -Iv 31 -Pn cbr -Pi 0 -Pf 1 -Po 2 
r -t 100.012053000 -Hs 2 -Hd 2 -Ni 2 -Nx 650.00 -Ny 500.00 -Nz 0.00 -Ne -1.000000 -Nl AGT -Nw --- -Ma 13a -Md 2 -Ms 1 -Mt 800 -Is 0.0 -Id 2.0 -It cbr -Il 220 -If 1 -Ii 30 -Iv 31 -Pn cbr -Pi 0 -Pf 2 -Po 2 
s -t 101.087494284 -Hs 0 -Hd -1 -Ni 0 -Nx 350.00 -Ny 500.00 -Nz 0.00 -Ne -1.000000 -Nl RTR -Nw --- -Ma 0 -Md 0 -Ms 0 -Mt 0 -Is 0.255 -Id -1.255 -It message -Il 56 -If 0 -Ii 31 -Iv 32 
r -t 101.088946784 -Hs 1 -Hd -1 -Ni 1 -Nx 500.00 -Ny 500.00 -Nz 0.00 -Ne -1.000000 -Nl RTR -Nw --- -Ma 0 -Md ffffffff -Ms 0 -Mt 800 -Is 0.255 -Id -1.255 -It message -Il 56 -If 0 -Ii 31 -Iv 32 
s -t 102.041493759 -Hs 0 -Hd -2 -Ni 0 -Nx 350.00 -Ny 500.00 -Nz 0.00 -Ne -1.000000 -Nl AGT -Nw --- -Ma 0 -Md 0 -Ms 0 -Mt 0 -Is 0.0 -Id 2.0 -It cbr -Il 200 -If 1 -Ii 32 -Iv 32 -Pn cbr -Pi 1 -Pf 0 -Po 2 
r -t 102.041493759 -Hs 0 -Hd -2 -Ni 0 -Nx 350.00 -Ny 500.00 -Nz 0.00 -Ne -1.000000 -Nl RTR -Nw --- -Ma 0 -Md 0 -Ms 0 -Mt 0 -Is 0.0 -Id 2.0 -It cbr -Il 200 -If 1 -Ii 32 -Iv 32 -Pn cbr -Pi 1 -Pf 0 -Po 2 
s -t 102.041493759 -Hs 0 -Hd 1 -Ni 0 -Nx 350.00 -Ny 500.00 -Nz 0.00 -Ne -1.000000 -Nl RTR -Nw --- -Ma 0 -Md 0 -Ms 0 -Mt 0 -Is 0.0 -Id 2.0 -It cbr -Il 220 -If 1 -Ii 32 -Iv 32 -Pn cbr -Pi 1 -Pf 0 -Po 2 
r -t 102.044815259 -Hs 1 -Hd 1 -Ni 1 -Nx 500.00 -Ny 500.00 -Nz 0.00 -Ne -1.000000 -Nl RTR -Nw --- -Ma 13a -Md 1 -Ms 0 -Mt 800 -Is 0.0 -Id 2.0 -It cbr -Il 220 -If 1 -Ii 32 -Iv 32 -Pn cbr -Pi 1 -Pf 1 -Po 2 
f -t 102.044815259 -Hs 1 -Hd 2 -Ni 1 -Nx 500.00 -Ny 500.00 -Nz 0.00 -Ne -1.000000 -Nl RTR -Nw --- -Ma 13a -Md 1 -Ms 0 -Mt 800 -Is 0.0 -Id 2.0 -It cbr -Il 220 -If 1 -Ii 32 -Iv 31 -Pn cbr -Pi 1 -Pf 1 -Po 2 
r -t 102.048260759 -Hs 2 -Hd 2 -Ni 2 -Nx 650.00 -Ny 500.00 -Nz 0.00 -Ne -1.000000 -Nl AGT -Nw --- -Ma 13a -Md 2 -Ms 1 -Mt 800 -Is 0.0 -Id 2.0 -It cbr -Il 220 -If 1 -Ii 32 -Iv 31 -Pn cbr -Pi 1 -Pf 2 -Po 2 
s -t 104.287273526 -Hs 0 -Hd -2 -Ni 0 -Nx 350.00 -Ny 500.00 -Nz 0.00 -Ne -1.000000 -Nl AGT -Nw --- -Ma 0 -Md 0 -Ms 0 -Mt 0 -Is 0.0 -Id 2.0 -It cbr -Il 200 -If 1 -Ii 33 -Iv 32 -Pn cbr -Pi 2 -Pf 0 -Po 2 
r -t 104.287273526 -Hs 0 -Hd -2 -Ni 0 -Nx 350.00 -Ny 500.00 -Nz 0.00 -Ne -1.000000 -Nl RTR -Nw --- -Ma 0 -Md 0 -Ms 0 -Mt 0 -Is 0.0 -Id 2.0 -It cbr -Il 200 -If 1 -Ii 33 -Iv 32 -Pn cbr -Pi 2 -Pf 0 -Po 2 
s -t 104.287273526 -Hs 0 -Hd 1 -Ni 0 -Nx 350.00 -Ny 500.00 -Nz 0.00 -Ne -1.000000 -Nl RTR -Nw --- -Ma 0 -Md 0 -Ms 0 -Mt 0 -Is 0.0 -Id 2.0 -It cbr -Il 220 -If 1 -Ii 33 -Iv 32 -Pn cbr -Pi 2 -Pf 0 -Po 2 
r -t 104.290515026 -Hs 1 -Hd 1 -Ni 1 -Nx 500.00 -Ny 500.00 -Nz 0.00 -Ne -1.000000 -Nl RTR -Nw --- -Ma 13a -Md 1 -Ms 0 -Mt 800 -Is 0.0 -Id 2.0 -It cbr -Il 220 -If 1 -Ii 33 -Iv 32 -Pn cbr -Pi 2 -Pf 1 -Po 2 
f -t 104.290515026 -Hs 1 -Hd 2 -Ni 1 -Nx 500.00 -Ny 500.00 -Nz 0.00 -Ne -1.000000 -Nl RTR -Nw --- -Ma 13a -Md 1 -Ms 0 -Mt 800 -Is 0.0 -Id 2.0 -It cbr -Il 220 -If 1 -Ii 33 -Iv 31 -Pn cbr -Pi 2 -Pf 1 -Po 2 
r -t 104.293780526 -Hs 2 -Hd 2 -Ni 2 -Nx 650.00 -Ny 500.00 -Nz 0.00 -Ne -1.000000 -Nl AGT -Nw --- -Ma 13a -Md 2 -Ms 1 -Mt 800 -Is 0.0 -Id 2.0 -It cbr -Il 220 -If 1 -Ii 33 -Iv 31 -Pn cbr -Pi 2 -Pf 2 -Po 2 
s -t 104.749301524 -Hs 2 -Hd -1 -Ni 2 -Nx 650.00 -Ny 500.00 -Nz 0.00 -Ne -1.000000 -Nl RTR -Nw --- -Ma 0 -Md 0 -Ms 0 -Mt 0 -Is 2.255 -Id -1.255 -It message -Il 56 -If 0 -Ii 34 -Iv 32 
r -t 104.750894024 -Hs 1 -Hd -1 -Ni 1 -Nx 500.00 -Ny 500.00 -Nz 0.00 -Ne -1.000000 -Nl RTR -Nw --- -Ma 0 -Md ffffffff -Ms 2 -Mt 800 -Is 2.255 -Id -1.255 -It message -Il 56 -If 0 -Ii 34 -Iv 32 
s -t 105.640643167 -Hs 0 -Hd -2 -Ni 0 -Nx 350.00 -Ny 500.00 -Nz 0.00 -Ne -1.000000 -Nl AGT -Nw --- -Ma 0 -Md 0 -Ms 0 -Mt 0 -Is 0.0 -Id 2.0 -It cbr -Il 200 -If 1 -Ii 35 -Iv 32 -Pn cbr -Pi 3 -Pf 0 -Po 2 
r -t 105.640643167 -Hs 0 -Hd -2 -Ni 0 -Nx 350.00 -Ny 500.00 -Nz 0.00 -Ne -1.000000 -Nl RTR -Nw --- -Ma 0 -Md 0 -Ms 0 -Mt 0 -Is 0.0 -Id 2.0 -It cbr -Il 200 -If 1 -Ii 35 -Iv 32 -Pn cbr -Pi 3 -Pf 0 -Po 2 
s -t 105.640643167 -Hs 0 -Hd 1 -Ni 0 -Nx 350.00 -Ny 500.00 -Nz 0.00 -Ne -1.000000 -Nl RTR -Nw --- -Ma 0 -Md 0 -Ms 0 -Mt 0 -Is 0.0 -Id 2.0 -It cbr -Il 220 -If 1 -Ii 35 -Iv 32 -Pn cbr -Pi 3 -Pf 0 -Po 2 
r -t 105.644164667 -Hs 1 -Hd 1 -Ni 1 -Nx 500.00 -Ny 500.00 -Nz 0.00 -Ne -1.000000 -Nl RTR -Nw --- -Ma 13a -Md 1 -Ms 0 -Mt 800 -Is 0.0 -Id 2.0 -It cbr -Il 220 -If 1 -Ii 35 -Iv 32 -Pn cbr -Pi 3 -Pf 1 -Po 2 
f -t 105.644164667 -Hs 1 -Hd 2 -Ni 1 -Nx 500.00 -Ny 500.00 -Nz 0.00 -Ne -1.000000 -Nl RTR -Nw --- -Ma 13a -Md 1 -Ms 0 -Mt 800 -Is 0.0 -Id 2.0 -It cbr -Il 220 -If 1 -Ii 35 -Iv 31 -Pn cbr -Pi 3 -Pf 1 -Po 2 
r -t 105.647570167 -Hs 2 -Hd 2 -Ni 2 -Nx 650.00 -Ny 500.00 -Nz 0.00 -Ne -1.000000 -Nl AGT -Nw --- -Ma 13a -Md 2 -Ms 1 -Mt 800 -Is 0.0 -Id 2.0 -It cbr -Il 220 -If 1 -Ii 35 -Iv 31 -Pn cbr -Pi 3 -Pf 2 -Po 2 
s -t 106.307783194 -Hs 1 -Hd -1 -Ni 1 -Nx 500.00 -Ny 500.00 -Nz 0.00 -Ne -1.000000 -Nl RTR -Nw --- -Ma 0 -Md 0 -Ms 0 -Mt 0 -Is 1.255 -Id -1.255 -It message -Il 44 -If 0 -Ii 36 -Iv 32 
r -t 106.308699694 -Hs 0 -Hd -1 -Ni 0 -Nx 350.00 -Ny 500.00 -Nz 0.00 -Ne -1.000000 -Nl RTR -Nw --- -Ma 0 -Md ffffffff -Ms 1 -Mt 800 -Is 1.255 -Id -1.255 -It message -Il 44 -If 0 -Ii 36 -Iv 32 
r -t 106.308699694 -Hs 2 -Hd -1 -Ni 2 -Nx 650.00 -Ny 500.00 -Nz 0.00 -Ne -1.000000 -Nl RTR -Nw --- -Ma 0 -Md ffffffff -Ms 1 -Mt 800 -Is 1.255 -Id -1.255 -It message -Il 44 -If 0 -Ii 36 -Iv 32 
s -t 108.228719112 -Hs 0 -Hd -2 -Ni 0 -Nx 350.00 -Ny 500.00 -Nz 0.00 -Ne -1.000000 -Nl AGT -Nw --- -Ma 0 -Md 0 -Ms 0 -Mt 0 -Is 0.0 -Id 2.0 -It cbr -Il 200 -If 1 -Ii 37 -Iv 32 -Pn cbr -Pi 4 -Pf 0 -Po 2 
r -t 108.228719112 -Hs 0 -Hd -2 -Ni 0 -Nx 350.00 -Ny 500.00 -Nz 0.00 -Ne -1.000000 -Nl RTR -Nw --- -Ma 0 -Md 0 -Ms 0 -Mt 0 -Is 0.0 -Id 2.0 -It cbr -Il 200 -If 1 -Ii 37 -Iv 32 -Pn cbr -Pi 4 -Pf 0 -Po 2 
s -t 108.228719112 -Hs 0 -Hd 1 -Ni 0 -Nx 350.00 -Ny 500.00 -Nz 0.00 -Ne -1.000000 -Nl RTR -Nw --- -Ma 0 -Md 0 -Ms 0 -Mt 0 -Is 0.0 -Id 2.0 -It cbr -Il 220 -If 1 -Ii 37 -Iv 32 -Pn cbr -Pi 4 -Pf 0 -Po 2 
r -t 108.231960612 -Hs 1 -Hd 1 -Ni 1 -Nx 500.00 -Ny 500.00 -Nz 0.00 -Ne -1.000000 -Nl RTR -Nw --- -Ma 13a -Md 1 -Ms 0 -Mt 800 -Is 0.0 -Id 2.0 -It cbr -Il 220 -If 1 -Ii 37 -Iv 32 -Pn cbr -Pi 4 -Pf 1 -Po 2 
f -t 108.231960612 -Hs 1 -Hd 2 -Ni 1 -Nx 500.00 -Ny 500.00 -Nz 0.00 -Ne -1.000000 -Nl RTR -Nw --- -Ma 13a -Md 1 -Ms 0 -Mt 800 -Is 0.0 -Id 2.0 -It cbr -Il 220 -If 1 -Ii 37 -Iv 31 -Pn cbr -Pi 4 -Pf 1 -Po 2 
r -t 108.235226112 -Hs 2 -Hd 2 -Ni 2 -Nx 650.00 -Ny 500.00 -Nz 0.00 -Ne -1.000000 -Nl AGT -Nw --- -Ma 13a -Md 2 -Ms 1 -Mt 800 -Is 0.0 -Id 2.0 -It cbr -Il 220 -If 1 -Ii 37 -Iv 31 -Pn cbr -Pi 4 -Pf 2 -Po 2 
s -t 111.040133359 -Hs 0 -Hd -2 -Ni 0 -Nx 350.00 -Ny 500.00 -Nz 0.00 -Ne -1.000000 -Nl AGT -Nw --- -Ma 0 -Md 0 -Ms 0 -Mt 0 -Is 0.0 -Id 2.0 -It cbr -Il 200 -If 1 -Ii 38 -Iv 32 -Pn cbr -Pi 5 -Pf 0 -Po 2 
r -t 111.040133359 -Hs 0 -Hd -2 -Ni 0 -Nx 350.00 -Ny 500.00 -Nz 0.00 -Ne -1.000000 -Nl RTR -Nw --- -Ma 0 -Md 0 -Ms 0 -Mt 0 -Is 0.0 -Id 2.0 -It cbr -Il 200 -If 1 -Ii 38 -Iv 32 -Pn cbr -Pi 5 -Pf 0 -Po 2 
s -t 111.040133359 -Hs 0 -Hd 1 -Ni 0 -Nx 350.00 -Ny 500.00 -Nz 0.00 -Ne -1.000000 -Nl RTR -Nw --- -Ma 0 -Md 0 -Ms 0 -Mt 0 -Is 0.0 -Id 2.0 -It cbr -Il 220 -If 1 -Ii 38 -Iv 32 -Pn cbr -Pi 5 -Pf 0 -Po 2 
r -t 111.043634859 -Hs 1 -Hd 1 -Ni 1 -Nx 500.00 -Ny 500.00 -Nz 0.00 -Ne -1.000000 -Nl RTR -Nw --- -Ma 13a -Md 1 -Ms 0 -Mt 800 -Is 0.0 -Id 2.0 -It cbr -Il 220 -If 1 -Ii 38 -Iv 32 -Pn cbr -Pi 5 -Pf 1 -Po 2 
f -t 111.043634859 -Hs 1 -Hd 2 -Ni 1 -Nx 500.00 -Ny 500.00 -Nz 0.00 -Ne -1.000000 -Nl RTR -Nw --- -Ma 13a -Md 1 -Ms 0 -Mt 800 -Is 0.0 -Id 2.0 -It cbr -Il 220 -If 1 -Ii 38 -Iv 31 -Pn cbr -Pi 5 -Pf 1 -Po 2 
r -t 111.047500359 -Hs 2 -Hd 2 -Ni 2 -Nx 650.00 -Ny 500.00 -Nz 0.00 -Ne -1.000000 -Nl AGT -Nw --- -Ma 13a -Md 2 -Ms 1 -Mt 800 -Is 0.0 -Id 2.0 -It cbr -Il 220 -If 1 -Ii 38 -Iv 31 -Pn cbr -Pi 5 -Pf 2 -Po 2 
s -t 112.173103462 -Hs 0 -Hd -2 -Ni 0 -Nx 350.00 -Ny 500.00 -Nz 0.00 -Ne -1.000000 -Nl AGT -Nw --- -Ma 0 -Md 0 -Ms 0 -Mt 0 -Is 0.0 -Id 2.0 -It cbr -Il 200 -If 1 -Ii 39 -Iv 32 -Pn cbr -Pi 6 -Pf 0 -Po 2 
r -t 112.173103462 -Hs 0 -Hd -2 -Ni 0 -Nx 350.00 -Ny 500.00 -Nz 0.00 -Ne -1.000000 -Nl RTR -Nw --- -Ma 0 -Md 0 -Ms 0 -Mt 0 -Is 0.0 -Id 2.0 -It cbr -Il 200 -If 1 -Ii 39 -Iv 32 -Pn cbr -Pi 6 -Pf 0 -Po 2 
s -t 112.173103462 -Hs 0 -Hd 1 -Ni 0 -Nx 350.00 -Ny 500.00 -Nz 0.00 -Ne -1.000000 -Nl RTR -Nw --- -Ma 0 -Md 0 -Ms 0 -Mt 0 -Is 0.0 -Id 2.0 -It cbr -Il 220 -If 1 -Ii 39 -Iv 32 -Pn cbr -Pi 6 -Pf 0 -Po 2 
r -t 112.176144962 -Hs 1 -Hd 1 -Ni 1 -Nx 500.00 -Ny 500.00 -Nz 0.00 -Ne -1.000000 -Nl RTR -Nw --- -Ma 13a -Md 1 -Ms 0 -Mt 800 -Is 0.0 -Id 2.0 -It cbr -Il 220 -If 1 -Ii 39 -Iv 32 -Pn cbr -Pi 6 -Pf 1 -Po 2 
f -t 112.176144962 -Hs 1 -Hd 2 -Ni 1 -Nx 500.00 -Ny 500.00 -Nz 0.00 -Ne -1.000000 -Nl RTR -Nw --- -Ma 13a -Md 1 -Ms 0 -Mt 800 -Is 0.0 -Id 2.0 -It cbr -Il 220 -If 1 -Ii 39 -Iv 31 -Pn cbr -Pi 6 -Pf 1 -Po 2 
r -t 112.179890462 -Hs 2 -Hd 2 -Ni 2 -Nx 650.00 -Ny 500.00 -Nz 0.00 -Ne -1.000000 -Nl AGT -Nw --- -Ma 13a -Md 2 -Ms 1 -Mt 800 -Is 0.0 -Id 2.0 -It cbr -Il 220 -If 1 -Ii 39 -Iv 31 -Pn cbr -Pi 6 -Pf 2 -Po 2 
s -t 113.698825224 -Hs 0 -Hd -2 -Ni 0 -Nx 350.00 -Ny 500.00 -Nz 0.00 -Ne -1.000000 -Nl AGT -Nw --- -Ma 0 -Md 0 -Ms 0 -Mt 0 -Is 0.0 -Id 2.0 -It cbr -Il 200 -If 1 -Ii 40 -Iv 32 -Pn cbr -Pi 7 -Pf 0 -Po 2 
r -t 113.698825224 -Hs 0 -Hd -2 -Ni 0 -Nx 350.00 -Ny 500.00 -Nz 0.00 -Ne -1.000000 -Nl RTR -Nw --- -Ma 0 -Md 0 -Ms 0 -Mt 0 -Is 0.0 -Id 2.0 -It cbr -Il 200 -If 1 -Ii 40 -Iv 32 -Pn cbr -Pi 7 -Pf 0 -Po 2 
s -t 113.698825224 -Hs 0 -Hd 1 -Ni 0 -Nx 350.00 -Ny 500.00 -Nz 0.00 -Ne -1.000000 -Nl RTR -Nw --- -Ma 0 -Md 0 -Ms 0 -Mt 0 -Is 0.0 -Id 2.0 -It cbr -Il 220 -If 1 -Ii 40 -Iv 32 -Pn cbr -Pi 7 -Pf 0 -Po 2 
r -t 113.702386724 -Hs 1 -Hd 1 -Ni 1 -Nx 500.00 -Ny 500.00 -Nz 0.00 -Ne -1.000000 -Nl RTR -Nw --- -Ma 13a -Md 1 -Ms 0 -Mt 800 -Is 0.0 -Id 2.0 -It cbr -Il 220 -If 1 -Ii 40 -Iv 32 -Pn cbr -Pi 7 -Pf 1 -Po 2 
f -t 113.702386724 -Hs 1 -Hd 2 -Ni 1 -Nx 500.00 -Ny 500.00 -Nz 0.00 -Ne -1.000000 -Nl RTR -Nw --- -Ma 13a -Md 1 -Ms 0 -Mt 800 -Is 0.0 -Id 2.0 -It cbr -Il 220 -If 1 -Ii 40 -Iv 31 -Pn cbr -Pi 7 -Pf 1 -Po 2 
r -t 113.705952224 -Hs 2 -Hd 2 -Ni 2 -Nx 650.00 -Ny 500.00 -Nz 0.00 -Ne -1.000000 -Nl AGT -Nw --- -Ma 13a -Md 2 -Ms 1 -Mt 800 -Is 0.0 -Id 2.0 -It cbr -Il 220 -If 1 -Ii 40 -Iv 31 -Pn cbr -Pi 7 -Pf 2 -Po 2 
s -t 115.098674629 -Hs 0 -Hd -1 -Ni 0 -Nx 350.00 -Ny 500.00 -Nz 0.00 -Ne -1.000000 -Nl RTR -Nw --- -Ma 0 -Md 0 -Ms 0 -Mt 0 -Is 0.255 -Id -1.255 -It message -Il 56 -If 0 -Ii 41 -Iv 32 
r -t 115.100207129 -Hs 1 -Hd -1 -Ni 1 -Nx 500.00 -Ny 500.00 -Nz 0.00 -Ne -1.000000 -Nl RTR -Nw --- -Ma 0 -Md ffffffff -Ms 0 -Mt 800 -Is 0.255 -Id -1.255 -It message -Il 56 -If 0 -Ii 41 -Iv 32 
s -t 116.013338191 -Hs 0 -Hd -2 -Ni 0 -Nx 350.00 -Ny 500.00 -Nz 0.00 -Ne -1.000000 -Nl AGT -Nw --- -Ma 0 -Md 0 -Ms 0 -Mt 0 -Is 0.0 -Id 2.0 -It cbr -Il 200 -If 1 -Ii 42 -Iv 32 -Pn cbr -Pi 8 -Pf 0 -Po 2 
r -t 116.013338191 -Hs 0 -Hd -2 -Ni 0 -Nx 350.00 -Ny 500.00 -Nz 0.00 -Ne -1.000000 -Nl RTR -Nw --- -Ma 0 -Md 0 -Ms 0 -Mt 0 -Is 0.0 -Id 2.0 -It cbr -Il 200 -If 1 -Ii 42 -Iv 32 -Pn cbr -Pi 8 -Pf 0 -Po 2 
s -t 116.013338191 -Hs 0 -Hd 1 -Ni 0 -Nx 350.00 -Ny 500.00 -Nz 0.00 -Ne -1.000000 -Nl RTR -Nw --- -Ma 0 -Md 0 -Ms 0 -Mt 0 -Is 0.0 -Id 2.0 -It cbr -Il 220 -If 1 -Ii 42 -Iv 32 -Pn cbr -Pi 8 -Pf 0 -Po 2 
r -t 116.016939691 -Hs 1 -Hd 1 -Ni 1 -Nx 500.00 -Ny 500.00 -Nz 0.00 -Ne -1.000000 -Nl RTR -Nw --- -Ma 13a -Md 1 -Ms 0 -Mt 800 -Is 0.0 -Id 2.0 -It cbr -Il 220 -If 1 -Ii 42 -Iv 32 -Pn cbr -Pi 8 -Pf 1 -Po 2 
f -t 116.016939691 -Hs 1 -Hd 2 -Ni 1 -Nx 500.00 -Ny 500.00 -Nz 0.00 -Ne -1.000000 -Nl RTR -Nw --- -Ma 13a -Md 1 -Ms 0 -Mt 800 -Is 0.0 -Id 2.0 -It cbr -Il 220 -If 1 -Ii 42 -Iv 31 -Pn cbr -Pi 8 -Pf 1 -Po 2 
r -t 116.020205191 -Hs 2 -Hd 2 -Ni 2 -Nx 650.00 -Ny 500.00 -Nz 0.00 -Ne -1.000000 -Nl AGT -Nw --- -Ma 13a -Md 2 -Ms 1 -Mt 800 -Is 0.0 -Id 2.0 -It cbr -Il 220 -If 1 -Ii 42 -Iv 31 -Pn cbr -Pi 8 -Pf 2 -Po 2 
s -t 117.399146649 -Hs 0 -Hd -2 -Ni 0 -Nx 350.00 -Ny 500.00 -Nz 0.00 -Ne -1.000000 -Nl AGT -Nw --- -Ma 0 -Md 0 -Ms 0 -Mt 0 -Is 0.0 -Id 2.0 -It cbr -Il 200 -If 1 -Ii 43 -Iv 32 -Pn cbr -Pi 9 -Pf 0 -Po 2 
r -t 117.399146649 -Hs 0 -Hd -2 -Ni 0 -Nx 350.00 -Ny 500.00 -Nz 0.00 -Ne -1.000000 -Nl RTR -Nw --- -Ma 0 -Md 0 -Ms 0 -Mt 0 -Is 0.0 -Id 2.0 -It cbr -Il 200 -If 1 -Ii 43 -Iv 32 -Pn cbr -Pi 9 -Pf 0 -Po 2 
s -t 117.399146649 -Hs 0 -Hd 1 -Ni 0 -Nx 350.00 -Ny 500.00 -Nz 0.00 -Ne -1.000000 -Nl RTR -Nw --- -Ma 0 -Md 0 -Ms 0 -Mt 0 -Is 0.0 -Id 2.0 -It cbr -Il 220 -If 1 -Ii 43 -Iv 32 -Pn cbr -Pi 9 -Pf 0 -Po 2 
r -t 117.402208149 -Hs 1 -Hd 1 -Ni 1 -Nx 500.00 -Ny 500.00 -Nz 0.00 -Ne -1.000000 -Nl RTR -Nw --- -Ma 13a -Md 1 -Ms 0 -Mt 800 -Is 0.0 -Id 2.0 -It cbr -Il 220 -If 1 -Ii 43 -Iv 32 -Pn cbr -Pi 9 -Pf 1 -Po 2 
f -t 117.402208149 -Hs 1 -Hd 2 -Ni 1 -Nx 500.00 -Ny 500.00 -Nz 0.00 -Ne -1.000000 -Nl RTR -Nw --- -Ma 13a -Md 1 -Ms 0 -Mt 800 -Is 0.0 -Id 2.0 -It cbr -Il 220 -If 1 -Ii 43 -Iv 31 -Pn cbr -Pi 9 -Pf 1 -Po 2 
r -t 117.405773649 -Hs 2 -Hd 2 -Ni 2 -Nx 650.00 -Ny 500.00 -Nz 0.00 -Ne -1.000000 -Nl AGT -Nw --- -Ma 13a -Md 2 -Ms 1 -Mt 800 -Is 0.0 -Id 2.0 -It cbr -Il 220 -If 1 -Ii 43 -Iv 31 -Pn cbr -Pi 9 -Pf 2 -Po 2 
s -t 119.117414934 -Hs 0 -Hd -2 -Ni 0 -Nx 350.00 -Ny 500.00 -Nz 0.00 -Ne -1.000000 -Nl AGT -Nw --- -Ma 0 -Md 0 -Ms 0 -Mt 0 -Is 0.0 -Id 2.0 -It cbr -Il 200 -If 1 -Ii 45 -Iv 32 -Pn cbr -Pi 10 -Pf 0 -Po 2 
r -t 119.117414934 -Hs 0 -Hd -2 -Ni 0 -Nx 350.00 -Ny 500.00 -Nz 0.00 -Ne -1.000000 -Nl RTR -Nw --- -Ma 0 -Md 0 -Ms 0 -Mt 0 -Is 0.0 -Id 2.0 -It cbr -Il 200 -If 1 -Ii 45 -Iv 32 -Pn cbr -Pi 10 -Pf 0 -Po 2 
s -t 119.117414934 -Hs 0 -Hd 1 -Ni 0 -Nx 350.00 -Ny 500.00 -Nz 0.00 -Ne -1.000000 -Nl RTR -Nw --- -Ma 0 -Md 0 -Ms 0 -Mt 0 -Is 0.0 -Id 2.0 -It cbr -Il 220 -If 1 -Ii 45 -Iv 32 -Pn cbr -Pi 10 -Pf 0 -Po 2 
s -t 119.117521631 -Hs 2 -Hd -1 -Ni 2 -Nx 650.00 -Ny 500.00 -Nz 0.00 -Ne -1.000000 -Nl RTR -Nw --- -Ma 0 -Md 0 -Ms 0 -Mt 0 -Is 2.255 -Id -1.255 -It message -Il 56 -If 0 -Ii 44 -Iv 32 
r -t 119.120496434 -Hs 1 -Hd 1 -Ni 1 -Nx 500.00 -Ny 500.00 -Nz 0.00 -Ne -1.000000 -Nl RTR -Nw --- -Ma 13a -Md 1 -Ms 0 -Mt 800 -Is 0.0 -Id 2.0 -It cbr -Il 220 -If 1 -Ii 45 -Iv 32 -Pn cbr -Pi 10 -Pf 1 -Po 2 
f -t 119.120496434 -Hs 1 -Hd 2 -Ni 1 -Nx 500.00 -Ny 500.00 -Nz 0.00 -Ne -1.000000 -Nl RTR -Nw --- -Ma 13a -Md 1 -Ms 0 -Mt 800 -Is 0.0 -Id 2.0 -It cbr -Il 220 -If 1 -Ii 45 -Iv 31 -Pn cbr -Pi 10 -Pf 1 -Po 2 
r -t 119.124221934 -Hs 2 -Hd 2 -Ni 2 -Nx 650.00 -Ny 500.00 -Nz 0.00 -Ne -1.000000 -Nl AGT -Nw --- -Ma 13a -Md 2 -Ms 1 -Mt 800 -Is 0.0 -Id 2.0 -It cbr -Il 220 -If 1 -Ii 45 -Iv 31 -Pn cbr -Pi 10 -Pf 2 -Po 2 
r -t 119.125658434 -Hs 1 -Hd -1 -Ni 1 -Nx 500.00 -Ny 500.00 -Nz 0.00 -Ne -1.000000 -Nl RTR -Nw --- -Ma 0 -Md ffffffff -Ms 2 -Mt 800 -Is 2.255 -Id -1.255 -It message -Il 56 -If 0 -Ii 44 -Iv 32 
s -t 119.281344466 -Hs 1 -Hd -1 -Ni 1 -Nx 500.00 -Ny 500.00 -Nz 0.00 -Ne -1.000000 -Nl RTR -Nw --- -Ma 0 -Md 0 -Ms 0 -Mt 0 -Is 1.255 -Id -1.255 -It message -Il 44 -If 0 -Ii 46 -Iv 32 
r -t 119.282780966 -Hs 0 -Hd -1 -Ni 0 -Nx 350.00 -Ny 500.00 -Nz 0.00 -Ne -1.000000 -Nl RTR -Nw --- -Ma 0 -Md ffffffff -Ms 1 -Mt 800 -Is 1.255 -Id -1.255 -It message -Il 44 -If 0 -Ii 46 -Iv 32 
r -t 119.282780966 -Hs 2 -Hd -1 -Ni 2 -Nx 650.00 -Ny 500.00 -Nz 0.00 -Ne -1.000000 -Nl RTR -Nw --- -Ma 0 -Md ffffffff -Ms 1 -Mt 800 -Is 1.255 -Id -1.255 -It message -Il 44 -If 0 -Ii 46 -Iv 32 
s -t 121.777505739 -Hs 0 -Hd -2 -Ni 0 -Nx 350.00 -Ny 500.00 -Nz 0.00 -Ne -1.000000 -Nl AGT -Nw --- -Ma 0 -Md 0 -Ms 0 -Mt 0 -Is 0.0 -Id 2.0 -It cbr -Il 200 -If 1 -Ii 47 -Iv 32 -Pn cbr -Pi 11 -Pf 0 -Po 2 
r -t 121.777505739 -Hs 0 -Hd -2 -Ni 0 -Nx 350.00 -Ny 500.00 -Nz 0.00 -Ne -1.000000 -Nl RTR -Nw --- -Ma 0 -Md 0 -Ms 0 -Mt 0 -Is 0.0 -Id 2.0 -It cbr -Il 200 -If 1 -Ii 47 -Iv 32 -Pn cbr -Pi 11 -Pf 0 -Po 2 
s -t 121.777505739 -Hs 0 -Hd 1 -Ni 0 -Nx 350.00 -Ny 500.00 -Nz 0.00 -Ne -1.000000 -Nl RTR -Nw --- -Ma 0 -Md 0 -Ms 0 -Mt 0 -Is 0.0 -Id 2.0 -It cbr -Il 220 -If 1 -Ii 47 -Iv 32 -Pn cbr -Pi 11 -Pf 0 -Po 2 
r -t 121.780967239 -Hs 1 -Hd 1 -Ni 1 -Nx 500.00 -Ny 500.00 -Nz 0.00 -Ne -1.000000 -Nl RTR -Nw --- -Ma 13a -Md 1 -Ms 0 -Mt 800 -Is 0.0 -Id 2.0 -It cbr -Il 220 -If 1 -Ii 47 -Iv 32 -Pn cbr -Pi 11 -Pf 1 -Po 2 
f -t 121.780967239 -Hs 1 -Hd 2 -Ni 1 -Nx 500.00 -Ny 500.00 -Nz 0.00 -Ne -1.000000 -Nl RTR -Nw --- -Ma 13a -Md 1 -Ms 0 -Mt 800 -Is 0.0 -Id 2.0 -It cbr -Il 220 -If 1 -Ii 47 -Iv 31 -Pn cbr -Pi 11 -Pf 1 -Po 2 
r -t 121.784292739 -Hs 2 -Hd 2 -Ni 2 -Nx 650.00 -Ny 500.00 -Nz 0.00 -Ne -1.000000 -Nl AGT -Nw --- -Ma 13a -Md 2 -Ms 1 -Mt 800 -Is 0.0 -Id 2.0 -It cbr -Il 220 -If 1 -Ii 47 -Iv 31 -Pn cbr -Pi 11 -Pf 2 -Po 2 
s -t 122.929650081 -Hs 0 -Hd -2 -Ni 0 -Nx 350.00 -Ny 500.00 -Nz 0.00 -Ne -1.000000 -Nl AGT -Nw --- -Ma 0 -Md 0 -Ms 0 -Mt 0 -Is 0.0 -Id 2.0 -It cbr -Il 200 -If 1 -Ii 48 -Iv 32 -Pn cbr -Pi 12 -Pf 0 -Po 2 
r -t 122.929650081 -Hs 0 -Hd -2 -Ni 0 -Nx 350.00 -Ny 500.00 -Nz 0.00 -Ne -1.000000 -Nl RTR -Nw --- -Ma 0 -Md 0 -Ms 0 -Mt 0 -Is 0.0 -Id 2.0 -It cbr -Il 200 -If 1 -Ii 48 -Iv 32 -Pn cbr -Pi 12 -Pf 0 -Po 2 
s -t 122.929650081 -Hs 0 -Hd 1 -Ni 0 -Nx 350.00 -Ny 500.00 -Nz 0.00 -Ne -1.000000 -Nl RTR -Nw --- -Ma 0 -Md 0 -Ms 0 -Mt 0 -Is 0.0 -Id 2.0 -It cbr -Il 220 -If 1 -Ii 48 -Iv 32 -Pn cbr -Pi 12 -Pf 0 -Po 2 
r -t 122.932691581 -Hs 1 -Hd 1 -Ni 1 -Nx 500.00 -Ny 500.00 -Nz 0.00 -Ne -1.000000 -Nl RTR -Nw --- -Ma 13a -Md 1 -Ms 0 -Mt 800 -Is 0.0 -Id 2.0 -It cbr -Il 220 -If 1 -Ii 48 -Iv 32 -Pn cbr -Pi 12 -Pf 1 -Po 2 