n -t * -s 0  -x 350 -y 500 -Z 0 -z 60  -v circle -c black
n -t * -s 1  -x 500 -y 500 -Z 0 -z 60  -v circle -c black
n -t * -s 2  -x 650 -y 500 -Z 0 -z 60  -v circle -c black
V -t * -v 1.0a5 -a 0
W -t * -x 1000 -y 1000
A -t * -n 1 -p 0 -o 0x7fffffff -c 30 -a 1
A -t * -h 1 -m 1073741823 -s 0
+ -t 0.001560381 -s 0 -d -1 -p message -e 32 -c 2 -a 0 -i 0 -k RTR 
- -t 0.001560381 -s 0 -d -1 -p message -e 32 -c 2 -a 0 -i 0 -k RTR
h -t 0.001560381 -s 0 -d -1 -p message -e 32 -c 2 -a 0 -i 0 -k RTR
r -t 0.002380881 -s 1 -d -1 -p message -e 32 -c 2 -a 0 -i 0 -k RTR
+ -t 0.036574082 -s 2 -d -1 -p message -e 32 -c 2 -a 0 -i 1 -k RTR 
- -t 0.036574082 -s 2 -d -1 -p message -e 32 -c 2 -a 0 -i 1 -k RTR
h -t 0.036574082 -s 2 -d -1 -p message -e 32 -c 2 -a 0 -i 1 -k RTR
r -t 0.037754582 -s 1 -d -1 -p message -e 32 -c 2 -a 0 -i 1 -k RTR
+ -t 1.120124667 -s 1 -d -1 -p message -e 32 -c 2 -a 0 -i 2 -k RTR 
- -t 1.120124667 -s 1 -d -1 -p message -e 32 -c 2 -a 0 -i 2 -k RTR
h -t 1.120124667 -s 1 -d -1 -p message -e 32 -c 2 -a 0 -i 2 -k RTR
r -t 1.121485167 -s 0 -d -1 -p message -e 32 -c 2 -a 0 -i 2 -k RTR
r -t 1.121485167 -s 2 -d -1 -p message -e 32 -c 2 -a 0 -i 2 -k RTR
+ -t 12.003518964 -s 1 -d -1 -p message -e 32 -c 2 -a 0 -i 3 -k RTR 
- -t 12.003518964 -s 1 -d -1 -p message -e 32 -c 2 -a 0 -i 3 -k RTR
h -t 12.003518964 -s 1 -d -1 -p message -e 32 -c 2 -a 0 -i 3 -k RTR
r -t 12.004579464 -s 0 -d -1 -p message -e 32 -c 2 -a 0 -i 3 -k RTR
r -t 12.004579464 -s 2 -d -1 -p message -e 32 -c 2 -a 0 -i 3 -k RTR
+ -t 12.159913943 -s 2 -d -1 -p message -e 32 -c 2 -a 0 -i 4 -k RTR 
- -t 12.159913943 -s 2 -d -1 -p message -e 32 -c 2 -a 0 -i 4 -k RTR
h -t 12.159913943 -s 2 -d -1 -p message -e 32 -c 2 -a 0 -i 4 -k RTR
r -t 12.161054443 -s 1 -d -1 -p message -e 32 -c 2 -a 0 -i 4 -k RTR
+ -t 12.907660217 -s 0 -d -1 -p message -e 32 -c 2 -a 0 -i 5 -k RTR 
- -t 12.907660217 -s 0 -d -1 -p message -e 32 -c 2 -a 0 -i 5 -k RTR
h -t 12.907660217 -s 0 -d -1 -p message -e 32 -c 2 -a 0 -i 5 -k RTR
r -t 12.908720717 -s 1 -d -1 -p message -e 32 -c 2 -a 0 -i 5 -k RTR
+ -t 12.984229775 -s 1 -d -1 -p message -e 32 -c 2 -a 0 -i 6 -k RTR 
- -t 12.984229775 -s 1 -d -1 -p message -e 32 -c 2 -a 0 -i 6 -k RTR
h -t 12.984229775 -s 1 -d -1 -p message -e 32 -c 2 -a 0 -i 6 -k RTR
r -t 12.985450275 -s 0 -d -1 -p message -e 32 -c 2 -a 0 -i 6 -k RTR
r -t 12.985450275 -s 2 -d -1 -p message -e 32 -c 2 -a 0 -i 6 -k RTR
+ -t 23.763598852 -s 2 -d -1 -p message -e 44 -c 2 -a 0 -i 10 -k RTR 
- -t 23.763598852 -s 2 -d -1 -p message -e 44 -c 2 -a 0 -i 10 -k RTR
h -t 23.763598852 -s 2 -d -1 -p message -e 44 -c 2 -a 0 -i 10 -k RTR
r -t 23.764815352 -s 1 -d -1 -p message -e 44 -c 2 -a 0 -i 10 -k RTR
+ -t 24.770236050 -s 2 -d -1 -p message -e 32 -c 2 -a 0 -i 11 -k RTR 
- -t 24.770236050 -s 2 -d -1 -p message -e 32 -c 2 -a 0 -i 11 -k RTR
h -t 24.770236050 -s 2 -d -1 -p message -e 32 -c 2 -a 0 -i 11 -k RTR
r -t 24.771136550 -s 1 -d -1 -p message -e 32 -c 2 -a 0 -i 11 -k RTR
+ -t 25.691692698 -s 0 -d -1 -p message -e 44 -c 2 -a 0 -i 12 -k RTR 
- -t 25.691692698 -s 0 -d -1 -p message -e 44 -c 2 -a 0 -i 12 -k RTR
h -t 25.691692698 -s 0 -d -1 -p message -e 44 -c 2 -a 0 -i 12 -k RTR
r -t 25.693129198 -s 1 -d -1 -p message -e 44 -c 2 -a 0 -i 12 -k RTR
+ -t 27.468972488 -s 1 -d -1 -p message -e 32 -c 2 -a 0 -i 13 -k RTR 
- -t 27.468972488 -s 1 -d -1 -p message -e 32 -c 2 -a 0 -i 13 -k RTR
h -t 27.468972488 -s 1 -d -1 -p message -e 32 -c 2 -a 0 -i 13 -k RTR
r -t 27.469852988 -s 0 -d -1 -p message -e 32 -c 2 -a 0 -i 13 -k RTR
r -t 27.469852988 -s 2 -d -1 -p message -e 32 -c 2 -a 0 -i 13 -k RTR
+ -t 37.646220553 -s 0 -d -1 -p message -e 44 -c 2 -a 0 -i 14 -k RTR 
- -t 37.646220553 -s 0 -d -1 -p message -e 44 -c 2 -a 0 -i 14 -k RTR
h -t 37.646220553 -s 0 -d -1 -p message -e 44 -c 2 -a 0 -i 14 -k RTR
r -t 37.647417053 -s 1 -d -1 -p message -e 44 -c 2 -a 0 -i 14 -k RTR
+ -t 38.205406103 -s 2 -d -1 -p message -e 56 -c 2 -a 0 -i 15 -k RTR 
- -t 38.205406103 -s 2 -d -1 -p message -e 56 -c 2 -a 0 -i 15 -k RTR
h -t 38.205406103 -s 2 -d -1 -p message -e 56 -c 2 -a 0 -i 15 -k RTR
r -t 38.206418603 -s 1 -d -1 -p message -e 56 -c 2 -a 0 -i 15 -k RTR
+ -t 39.132794686 -s 1 -d -1 -p message -e 32 -c 2 -a 0 -i 16 -k RTR 
- -t 39.132794686 -s 1 -d -1 -p message -e 32 -c 2 -a 0 -i 16 -k RTR
h -t 39.132794686 -s 1 -d -1 -p message -e 32 -c 2 -a 0 -i 16 -k RTR
r -t 39.133835186 -s 0 -d -1 -p message -e 32 -c 2 -a 0 -i 16 -k RTR
r -t 39.133835186 -s 2 -d -1 -p message -e 32 -c 2 -a 0 -i 16 -k RTR
+ -t 50.152278793 -s 0 -d -1 -p message -e 44 -c 2 -a 0 -i 17 -k RTR 
- -t 50.152278793 -s 0 -d -1 -p message -e 44 -c 2 -a 0 -i 17 -k RTR
h -t 50.152278793 -s 0 -d -1 -p message -e 44 -c 2 -a 0 -i 17 -k RTR
r -t 50.153435293 -s 1 -d -1 -p message -e 44 -c 2 -a 0 -i 17 -k RTR
+ -t 52.080587722 -s 2 -d -1 -p message -e 56 -c 2 -a 0 -i 18 -k RTR 
- -t 52.080587722 -s 2 -d -1 -p message -e 56 -c 2 -a 0 -i 18 -k RTR
h -t 52.080587722 -s 2 -d -1 -p message -e 56 -c 2 -a 0 -i 18 -k RTR
r -t 52.082080222 -s 1 -d -1 -p message -e 56 -c 2 -a 0 -i 18 -k RTR
+ -t 52.470585287 -s 1 -d -1 -p message -e 32 -c 2 -a 0 -i 19 -k RTR 
- -t 52.470585287 -s 1 -d -1 -p message -e 32 -c 2 -a 0 -i 19 -k RTR
h -t 52.470585287 -s 1 -d -1 -p message -e 32 -c 2 -a 0 -i 19 -k RTR
r -t 52.471445787 -s 0 -d -1 -p message -e 32 -c 2 -a 0 -i 19 -k RTR
r -t 52.471445787 -s 2 -d -1 -p message -e 32 -c 2 -a 0 -i 19 -k RTR
+ -t 62.105960128 -s 0 -d -1 -p message -e 44 -c 2 -a 0 -i 20 -k RTR 
- -t 62.105960128 -s 0 -d -1 -p message -e 44 -c 2 -a 0 -i 20 -k RTR
h -t 62.105960128 -s 0 -d -1 -p message -e 44 -c 2 -a 0 -i 20 -k RTR
r -t 62.106976628 -s 1 -d -1 -p message -e 44 -c 2 -a 0 -i 20 -k RTR
+ -t 64.054295657 -s 1 -d -1 -p message -e 44 -c 2 -a 0 -i 21 -k RTR 
- -t 64.054295657 -s 1 -d -1 -p message -e 44 -c 2 -a 0 -i 21 -k RTR
h -t 64.054295657 -s 1 -d -1 -p message -e 44 -c 2 -a 0 -i 21 -k RTR
r -t 64.055272157 -s 0 -d -1 -p message -e 44 -c 2 -a 0 -i 21 -k RTR
r -t 64.055272157 -s 2 -d -1 -p message -e 44 -c 2 -a 0 -i 21 -k RTR
+ -t 64.106859834 -s 2 -d -1 -p message -e 44 -c 2 -a 0 -i 22 -k RTR 
- -t 64.106859834 -s 2 -d -1 -p message -e 44 -c 2 -a 0 -i 22 -k RTR
h -t 64.106859834 -s 2 -d -1 -p message -e 44 -c 2 -a 0 -i 22 -k RTR
r -t 64.107836334 -s 1 -d -1 -p message -e 44 -c 2 -a 0 -i 22 -k RTR
+ -t 75.349239229 -s 0 -d -1 -p message -e 44 -c 2 -a 0 -i 23 -k RTR 
- -t 75.349239229 -s 0 -d -1 -p message -e 44 -c 2 -a 0 -i 23 -k RTR
h -t 75.349239229 -s 0 -d -1 -p message -e 44 -c 2 -a 0 -i 23 -k RTR
r -t 75.350595729 -s 1 -d -1 -p message -e 44 -c 2 -a 0 -i 23 -k RTR
+ -t 76.352313903 -s 0 -d -1 -p message -e 32 -c 2 -a 0 -i 24 -k RTR 
- -t 76.352313903 -s 0 -d -1 -p message -e 32 -c 2 -a 0 -i 24 -k RTR
h -t 76.352313903 -s 0 -d -1 -p message -e 32 -c 2 -a 0 -i 24 -k RTR
r -t 76.353434403 -s 1 -d -1 -p message -e 32 -c 2 -a 0 -i 24 -k RTR
+ -t 77.551496402 -s 2 -d -1 -p message -e 56 -c 2 -a 0 -i 25 -k RTR 
- -t 77.551496402 -s 2 -d -1 -p message -e 56 -c 2 -a 0 -i 25 -k RTR
h -t 77.551496402 -s 2 -d -1 -p message -e 56 -c 2 -a 0 -i 25 -k RTR
r -t 77.553088902 -s 1 -d -1 -p message -e 56 -c 2 -a 0 -i 25 -k RTR
+ -t 78.360736379 -s 1 -d -1 -p message -e 32 -c 2 -a 0 -i 26 -k RTR 
- -t 78.360736379 -s 1 -d -1 -p message -e 32 -c 2 -a 0 -i 26 -k RTR
h -t 78.360736379 -s 1 -d -1 -p message -e 32 -c 2 -a 0 -i 26 -k RTR
r -t 78.361996879 -s 0 -d -1 -p message -e 32 -c 2 -a 0 -i 26 -k RTR
r -t 78.361996879 -s 2 -d -1 -p message -e 32 -c 2 -a 0 -i 26 -k RTR
+ -t 88.693363318 -s 0 -d -1 -p message -e 56 -c 2 -a 0 -i 27 -k RTR 
- -t 88.693363318 -s 0 -d -1 -p message -e 56 -c 2 -a 0 -i 27 -k RTR
h -t 88.693363318 -s 0 -d -1 -p message -e 56 -c 2 -a 0 -i 27 -k RTR
r -t 88.694595818 -s 1 -d -1 -p message -e 56 -c 2 -a 0 -i 27 -k RTR
+ -t 90.205862170 -s 2 -d -1 -p message -e 56 -c 2 -a 0 -i 28 -k RTR 
- -t 90.205862170 -s 2 -d -1 -p message -e 56 -c 2 -a 0 -i 28 -k RTR
h -t 90.205862170 -s 2 -d -1 -p message -e 56 -c 2 -a 0 -i 28 -k RTR
r -t 90.207194670 -s 1 -d -1 -p message -e 56 -c 2 -a 0 -i 28 -k RTR
+ -t 92.216570420 -s 1 -d -1 -p message -e 32 -c 2 -a 0 -i 29 -k RTR 
- -t 92.216570420 -s 1 -d -1 -p message -e 32 -c 2 -a 0 -i 29 -k RTR
h -t 92.216570420 -s 1 -d -1 -p message -e 32 -c 2 -a 0 -i 29 -k RTR
r -t 92.217550920 -s 0 -d -1 -p message -e 32 -c 2 -a 0 -i 29 -k RTR
r -t 92.217550920 -s 2 -d -1 -p message -e 32 -c 2 -a 0 -i 29 -k RTR
+ -t 100.000000000 -s 0 -d -1 -p cbr -e 200 -c 2 -a 0 -i 30 -k AGT 
- -t 100.000000000 -s 0 -d -1 -p cbr -e 200 -c 2 -a 0 -i 30 -k AGT
h -t 100.000000000 -s 0 -d -1 -p cbr -e 200 -c 2 -a 0 -i 30 -k AGT
+ -t 100.000000000 -s 0 -d 1 -p cbr -e 220 -c 2 -a 0 -i 30 -k RTR 
- -t 100.000000000 -s 0 -d 1 -p cbr -e 220 -c 2 -a 0 -i 30 -k RTR
h -t 100.000000000 -s 0 -d 1 -p cbr -e 220 -c 2 -a 0 -i 30 -k RTR
+ -t 100.006134500 -s 1 -d 2 -p cbr -e 220 -c 2 -a 0 -i 30 -k RTR 
- -t 100.006134500 -s 1 -d 2 -p cbr -e 220 -c 2 -a 0 -i 30 -k RTR
h -t 100.006134500 -s 1 -d 2 -p cbr -e 220 -c 2 -a 0 -i 30 -k RTR
r -t 100.012053000 -s 2 -d 2 -p cbr -e 220 -c 2 -a 0 -i 30 -k AGT
+ -t 101.087494284 -s 0 -d -1 -p message -e 56 -c 2 -a 0 -i 31 -k RTR 
- -t 101.087494284 -s 0 -d -1 -p message -e 56 -c 2 -a 0 -i 31 -k RTR
h -t 101.087494284 -s 0 -d -1 -p message -e 56 -c 2 -a 0 -i 31 -k RTR
r -t 101.088946784 -s 1 -d -1 -p message -e 56 -c 2 -a 0 -i 31 -k RTR
+ -t 102.041493759 -s 0 -d -1 -p cbr -e 200 -c 2 -a 0 -i 32 -k AGT 
- -t 102.041493759 -s 0 -d -1 -p cbr -e 200 -c 2 -a 0 -i 32 -k AGT
h -t 102.041493759 -s 0 -d -1 -p cbr -e 200 -c 2 -a 0 -i 32 -k AGT
+ -t 102.041493759 -s 0 -d 1 -p cbr -e 220 -c 2 -a 0 -i 32 -k RTR 
- -t 102.041493759 -s 0 -d 1 -p cbr -e 220 -c 2 -a 0 -i 32 -k RTR
h -t 102.041493759 -s 0 -d 1 -p cbr -e 220 -c 2 -a 0 -i 32 -k RTR
+ -t 102.044815259 -s 1 -d 2 -p cbr -e 220 -c 2 -a 0 -i 32 -k RTR 
- -t 102.044815259 -s 1 -d 2 -p cbr -e 220 -c 2 -a 0 -i 32 -k RTR
h -t 102.044815259 -s 1 -d 2 -p cbr -e 220 -c 2 -a 0 -i 32 -k RTR
r -t 102.048260759 -s 2 -d 2 -p cbr -e 220 -c 2 -a 0 -i 32 -k AGT
+ -t 104.287273526 -s 0 -d -1 -p cbr -e 200 -c 2 -a 0 -i 33 -k AGT 
- -t 104.287273526 -s 0 -d -1 -p cbr -e 200 -c 2 -a 0 -i 33 -k AGT
h -t 104.287273526 -s 0 -d -1 -p cbr -e 200 -c 2 -a 0 -i 33 -k AGT
+ -t 104.287273526 -s 0 -d 1 -p cbr -e 220 -c 2 -a 0 -i 33 -k RTR 
- -t 104.287273526 -s 0 -d 1 -p cbr -e 220 -c 2 -a 0 -i 33 -k RTR
h -t 104.287273526 -s 0 -d 1 -p cbr -e 220 -c 2 -a 0 -i 33 -k RTR
+ -t 104.290515026 -s 1 -d 2 -p cbr -e 220 -c 2 -a 0 -i 33 -k RTR 
- -t 104.290515026 -s 1 -d 2 -p cbr -e 220 -c 2 -a 0 -i 33 -k RTR
h -t 104.290515026 -s 1 -d 2 -p cbr -e 220 -c 2 -a 0 -i 33 -k RTR
r -t 104.293780526 -s 2 -d 2 -p cbr -e 220 -c 2 -a 0 -i 33 -k AGT
+ -t 104.749301524 -s 2 -d -1 -p message -e 56 -c 2 -a 0 -i 34 -k RTR 
- -t 104.749301524 -s 2 -d -1 -p message -e 56 -c 2 -a 0 -i 34 -k RTR
h -t 104.749301524 -s 2 -d -1 -p message -e 56 -c 2 -a 0 -i 34 -k RTR
r -t 104.750894024 -s 1 -d -1 -p message -e 56 -c 2 -a 0 -i 34 -k RTR
+ -t 105.640643167 -s 0 -d -1 -p cbr -e 200 -c 2 -a 0 -i 35 -k AGT 
- -t 105.640643167 -s 0 -d -1 -p cbr -e 200 -c 2 -a 0 -i 35 -k AGT
h -t 105.640643167 -s 0 -d -1 -p cbr -e 200 -c 2 -a 0 -i 35 -k AGT
+ -t 105.640643167 -s 0 -d 1 -p cbr -e 220 -c 2 -a 0 -i 35 -k RTR 
- -t 105.640643167 -s 0 -d 1 -p cbr -e 220 -c 2 -a 0 -i 35 -k RTR
h -t 105.640643167 -s 0 -d 1 -p cbr -e 220 -c 2 -a 0 -i 35 -k RTR
+ -t 105.644164667 -s 1 -d 2 -p cbr -e 220 -c 2 -a 0 -i 35 -k RTR 
- -t 105.644164667 -s 1 -d 2 -p cbr -e 220 -c 2 -a 0 -i 35 -k RTR
h -t 105.644164667 -s 1 -d 2 -p cbr -e 220 -c 2 -a 0 -i 35 -k RTR
r -t 105.647570167 -s 2 -d 2 -p cbr -e 220 -c 2 -a 0 -i 35 -k AGT
+ -t 106.307783194 -s 1 -d -1 -p message -e 44 -c 2 -a 0 -i 36 -k RTR 
- -t 106.307783194 -s 1 -d -1 -p message -e 44 -c 2 -a 0 -i 36 -k RTR
h -t 106.307783194 -s 1 -d -1 -p message -e 44 -c 2 -a 0 -i 36 -k RTR
r -t 106.308699694 -s 0 -d -1 -p message -e 44 -c 2 -a 0 -i 36 -k RTR
r -t 106.308699694 -s 2 -d -1 -p message -e 44 -c 2 -a 0 -i 36 -k RTR
+ -t 108.228719112 -s 0 -d -1 -p cbr -e 200 -c 2 -a 0 -i 37 -k AGT 
- -t 108.228719112 -s 0 -d -1 -p cbr -e 200 -c 2 -a 0 -i 37 -k AGT
h -t 108.228719112 -s 0 -d -1 -p cbr -e 200 -c 2 -a 0 -i 37 -k AGT
+ -t 108.228719112 -s 0 -d 1 -p cbr -e 220 -c 2 -a 0 -i 37 -k RTR 
- -t 108.228719112 -s 0 -d 1 -p cbr -e 220 -c 2 -a 0 -i 37 -k RTR
h -t 108.228719112 -s 0 -d 1 -p cbr -e 220 -c 2 -a 0 -i 37 -k RTR
+ -t 108.231960612 -s 1 -d 2 -p cbr -e 220 -c 2 -a 0 -i 37 -k RTR 
- -t 108.231960612 -s 1 -d 2 -p cbr -e 220 -c 2 -a 0 -i 37 -k RTR
h -t 108.231960612 -s 1 -d 2 -p cbr -e 220 -c 2 -a 0 -i 37 -k RTR
r -t 108.235226112 -s 2 -d 2 -p cbr -e 220 -c 2 -a 0 -i 37 -k AGT
+ -t 111.040133359 -s 0 -d -1 -p cbr -e 200 -c 2 -a 0 -i 38 -k AGT 
- -t 111.040133359 -s 0 -d -1 -p cbr -e 200 -c 2 -a 0 -i 38 -k AGT
h -t 111.040133359 -s 0 -d -1 -p cbr -e 200 -c 2 -a 0 -i 38 -k AGT
+ -t 111.040133359 -s 0 -d 1 -p cbr -e 220 -c 2 -a 0 -i 38 -k RTR 
- -t 111.040133359 -s 0 -d 1 -p cbr -e 220 -c 2 -a 0 -i 38 -k RTR
h -t 111.040133359 -s 0 -d 1 -p cbr -e 220 -c 2 -a 0 -i 38 -k RTR
+ -t 111.043634859 -s 1 -d 2 -p cbr -e 220 -c 2 -a 0 -i 38 -k RTR 
- -t 111.043634859 -s 1 -d 2 -p cbr -e 220 -c 2 -a 0 -i 38 -k RTR
h -t 111.043634859 -s 1 -d 2 -p cbr -e 220 -c 2 -a 0 -i 38 -k RTR
r -t 111.047500359 -s 2 -d 2 -p cbr -e 220 -c 2 -a 0 -i 38 -k AGT
+ -t 112.173103462 -s 0 -d -1 -p cbr -e 200 -c 2 -a 0 -i 39 -k AGT 
- -t 112.173103462 -s 0 -d -1 -p cbr -e 200 -c 2 -a 0 -i 39 -k AGT
h -t 112.173103462 -s 0 -d -1 -p cbr -e 200 -c 2 -a 0 -i 39 -k AGT
+ -t 112.173103462 -s 0 -d 1 -p cbr -e 220 -c 2 -a 0 -i 39 -k RTR 
- -t 112.173103462 -s 0 -d 1 -p cbr -e 220 -c 2 -a 0 -i 39 -k RTR
h -t 112.173103462 -s 0 -d 1 -p cbr -e 220 -c 2 -a 0 -i 39 -k RTR
+ -t 112.176144962 -s 1 -d 2 -p cbr -e 220 -c 2 -a 0 -i 39 -k RTR 
- -t 112.176144962 -s 1 -d 2 -p cbr -e 220 -c 2 -a 0 -i 39 -k RTR
h -t 112.176144962 -s 1 -d 2 -p cbr -e 220 -c 2 -a 0 -i 39 -k RTR
r -t 112.179890462 -s 2 -d 2 -p cbr -e 220 -c 2 -a 0 -i 39 -k AGT
+ -t 113.698825224 -s 0 -d -1 -p cbr -e 200 -c 2 -a 0 -i 40 -k AGT 
- -t 113.698825224 -s 0 -d -1 -p cbr -e 200 -c 2 -a 0 -i 40 -k AGT
h -t 113.698825224 -s 0 -d -1 -p cbr -e 200 -c 2 -a 0 -i 40 -k AGT
+ -t 113.698825224 -s 0 -d 1 -p cbr -e 220 -c 2 -a 0 -i 40 -k RTR 
- -t 113.698825224 -s 0 -d 1 -p cbr -e 220 -c 2 -a 0 -i 40 -k RTR
h -t 113.698825224 -s 0 -d 1 -p cbr -e 220 -c 2 -a 0 -i 40 -k RTR
+ -t 113.702386724 -s 1 -d 2 -p cbr -e 220 -c 2 -a 0 -i 40 -k RTR 
- -t 113.702386724 -s 1 -d 2 -p cbr -e 220 -c 2 -a 0 -i 40 -k RTR
h -t 113.702386724 -s 1 -d 2 -p cbr -e 220 -c 2 -a 0 -i 40 -k RTR
r -t 113.705952224 -s 2 -d 2 -p cbr -e 220 -c 2 -a 0 -i 40 -k AGT
+ -t 115.098674629 -s 0 -d -1 -p message -e 56 -c 2 -a 0 -i 41 -k RTR 
- -t 115.098674629 -s 0 -d -1 -p message -e 56 -c 2 -a 0 -i 41 -k RTR
h -t 115.098674629 -s 0 -d -1 -p message -e 56 -c 2 -a 0 -i 41 -k RTR
r -t 115.100207129 -s 1 -d -1 -p message -e 56 -c 2 -a 0 -i 41 -k RTR
+ -t 116.013338191 -s 0 -d -1 -p cbr -e 200 -c 2 -a 0 -i 42 -k AGT 
- -t 116.013338191 -s 0 -d -1 -p cbr -e 200 -c 2 -a 0 -i 42 -k AGT
h -t 116.013338191 -s 0 -d -1 -p cbr -e 200 -c 2 -a 0 -i 42 -k AGT
+ -t 116.013338191 -s 0 -d 1 -p cbr -e 220 -c 2 -a 0 -i 42 -k RTR 
- -t 116.013338191 -s 0 -d 1 -p cbr -e 220 -c 2 -a 0 -i 42 -k RTR
h -t 116.013338191 -s 0 -d 1 -p cbr -e 220 -c 2 -a 0 -i 42 -k RTR
+ -t 116.016939691 -s 1 -d 2 -p cbr -e 220 -c 2 -a 0 -i 42 -k RTR 
- -t 116.016939691 -s 1 -d 2 -p cbr -e 220 -c 2 -a 0 -i 42 -k RTR
h -t 116.016939691 -s 1 -d 2 -p cbr -e 220 -c 2 -a 0 -i 42 -k RTR
r -t 116.020205191 -s 2 -d 2 -p cbr -e 220 -c 2 -a 0 -i 42 -k AGT
+ -t 117.399146649 -s 0 -d -1 -p cbr -e 200 -c 2 -a 0 -i 43 -k AGT 
- -t 117.399146649 -s 0 -d -1 -p cbr -e 200 -c 2 -a 0 -i 43 -k AGT
h -t 117.399146649 -s 0 -d -1 -p cbr -e 200 -c 2 -a 0 -i 43 -k AGT
+ -t 117.399146649 -s 0 -d 1 -p cbr -e 220 -c 2 -a 0 -i 43 -k RTR 
- -t 117.399146649 -s 0 -d 1 -p cbr -e 220 -c 2 -a 0 -i 43 -k RTR
h -t 117.399146649 -s 0 -d 1 -p cbr -e 220 -c 2 -a 0 -i 43 -k RTR
+ -t 117.402208149 -s 1 -d 2 -p cbr -e 220 -c 2 -a 0 -i 43 -k RTR 
- -t 117.402208149 -s 1 -d 2 -p cbr -e 220 -c 2 -a 0 -i 43 -k RTR
h -t 117.402208149 -s 1 -d 2 -p cbr -e 220 -c 2 -a 0 -i 43 -k RTR
r -t 117.405773649 -s 2 -d 2 -p cbr -e 220 -c 2 -a 0 -i 43 -k AGT
+ -t 119.117414934 -s 0 -d -1 -p cbr -e 200 -c 2 -a 0 -i 45 -k AGT 
- -t 119.117414934 -s 0 -d -1 -p cbr -e 200 -c 2 -a 0 -i 45 -k AGT
h -t 119.117414934 -s 0 -d -1 -p cbr -e 200 -c 2 -a 0 -i 45 -k AGT
+ -t 119.117414934 -s 0 -d 1 -p cbr -e 220 -c 2 -a 0 -i 45 -k RTR 
- -t 119.117414934 -s 0 -d 1 -p cbr -e 220 -c 2 -a 0 -i 45 -k RTR
h -t 119.117414934 -s 0 -d 1 -p cbr -e 220 -c 2 -a 0 -i 45 -k RTR
+ -t 119.117521631 -s 2 -d -1 -p message -e 56 -c 2 -a 0 -i 44 -k RTR 
- -t 119.117521631 -s 2 -d -1 -p message -e 56 -c 2 -a 0 -i 44 -k RTR
h -t 119.117521631 -s 2 -d -1 -p message -e 56 -c 2 -a 0 -i 44 -k RTR
+ -t 119.120496434 -s 1 -d 2 -p cbr -e 220 -c 2 -a 0 -i 45 -k RTR 
- -t 119.120496434 -s 1 -d 2 -p cbr -e 220 -c 2 -a 0 -i 45 -k RTR
h -t 119.120496434 -s 1 -d 2 -p cbr -e 220 -c 2 -a 0 -i 45 -k RTR
r -t 119.124221934 -s 2 -d 2 -p cbr -e 220 -c 2 -a 0 -i 45 -k AGT
r -t 119.125658434 -s 1 -d -1 -p message -e 56 -c 2 -a 0 -i 44 -k RTR
+ -t 119.281344466 -s 1 -d -1 -p message -e 44 -c 2 -a 0 -i 46 -k RTR 
- -t 119.281344466 -s 1 -d -1 -p message -e 44 -c 2 -a 0 -i 46 -k RTR
h -t 119.281344466 -s 1 -d -1 -p message -e 44 -c 2 -a 0 -i 46 -k RTR
r -t 119.282780966 -s 0 -d -1 -p message -e 44 -c 2 -a 0 -i 46 -k RTR
r -t 119.282780966 -s 2 -d -1 -p message -e 44 -c 2 -a 0 -i 46 -k RTR
+ -t 121.777505739 -s 0 -d -1 -p cbr -e 200 -c 2 -a 0 -i 47 -k AGT 
- -t 121.777505739 -s 0 -d -1 -p cbr -e 200 -c 2 -a 0 -i 47 -k AGT
h -t 121.777505739 -s 0 -d -1 -p cbr -e 200 -c 2 -a 0 -i 47 -k AGT
+ -t 121.777505739 -s 0 -d 1 -p cbr -e 220 -c 2 -a 0 -i 47 -k RTR 
- -t 121.777505739 -s 0 -d 1 -p cbr -e 220 -c 2 -a 0 -i 47 -k RTR
h -t 121.777505739 -s 0 -d 1 -p cbr -e 220 -c 2 -a 0 -i 47 -k RTR
+ -t 121.780967239 -s 1 -d 2 -p cbr -e 220 -c 2 -a 0 -i 47 -k RTR 
- -t 121.780967239 -s 1 -d 2 -p cbr -e 220 -c 2 -a 0 -i 47 -k RTR
h -t 121.780967239 -s 1 -d 2 -p cbr -e 220 -c 2 -a 0 -i 47 -k RTR
r -t 121.784292739 -s 2 -d 2 -p cbr -e 220 -c 2 -a 0 -i 47 -k AGT
+ -t 122.929650081 -s 0 -d -1 -p cbr -e 200 -c 2 -a 0 -i 48 -k AGT 
- -t 122.929650081 -s 0 -d -1 -p cbr -e 200 -c 2 -a 0 -i 48 -k AGT
h -t 122.929650081 -s 0 -d -1 -p cbr -e 200 -c 2 -a 0 -i 48 -k AGT
+ -t 122.929650081 -s 0 -d 1 -p cbr -e 220 -c 2 -a 0 -i 48 -k RTR 
- -t 122.929650081 -s 0 -d 1 -p cbr -e 220 -c 2 -a 0 -i 48 -k RTR
h -t 122.929650081 -s 0 -d 1 -p cbr -e 220 -c 2 -a 0 -i 48 -k RTR
+ -t 122.932691581 -s 1 -d 2 -p cbr -e 220 -c 2 -a 0 -i 48 -k RTR 
- -t 122.932691581 -s 1 -d 2 -p cbr -e 220 -c 2 -a 0 -i 48 -k RTR
h -t 122.932691581 -s 1 -d 2 -p cbr -e 220 -c 2 -a 0 -i 48 -k RTR
r -t 122.936217081 -s 2 -d 2 -p cbr -e 220 -c 2 -a 0 -i 48 -k AGT
+ -t 124.469161082 -s 0 -d -1 -p cbr -e 200 -c 2 -a 0 -i 49 -k AGT 
- -t 124.469161082 -s 0 -d -1 -p cbr -e 200 -c 2 -a 0 -i 49 -k AGT
h -t 124.469161082 -s 0 -d -1 -p cbr -e 200 -c 2 -a 0 -i 49 -k AGT
+ -t 124.469161082 -s 0 -d 1 -p cbr -e 220 -c 2 -a 0 -i 49 -k RTR 
- -t 124.469161082 -s 0 -d 1 -p cbr -e 220 -c 2 -a 0 -i 49 -k RTR
h -t 124.469161082 -s 0 -d 1 -p cbr -e 220 -c 2 -a 0 -i 49 -k RTR
+ -t 124.472502582 -s 1 -d 2 -p cbr -e 220 -c 2 -a 0 -i 49 -k RTR 
- -t 124.472502582 -s 1 -d 2 -p cbr -e 220 -c 2 -a 0 -i 49 -k RTR
h -t 124.472502582 -s 1 -d 2 -p cbr -e 220 -c 2 -a 0 -i 49 -k RTR
r -t 124.476108082 -s 2 -d 2 -p cbr -e 220 -c 2 -a 0 -i 49 -k AGT
+ -t 126.085058304 -s 0 -d -1 -p cbr -e 200 -c 2 -a 0 -i 50 -k AGT 
- -t 126.085058304 -s 0 -d -1 -p cbr -e 200 -c 2 -a 0 -i 50 -k AGT
h -t 126.085058304 -s 0 -d -1 -p cbr -e 200 -c 2 -a 0 -i 50 -k AGT
+ -t 126.085058304 -s 0 -d 1 -p cbr -e 220 -c 2 -a 0 -i 50 -k RTR 
- -t 126.085058304 -s 0 -d 1 -p cbr -e 220 -c 2 -a 0 -i 50 -k RTR
h -t 126.085058304 -s 0 -d 1 -p cbr -e 220 -c 2 -a 0 -i 50 -k RTR
+ -t 126.088519804 -s 1 -d 2 -p cbr -e 220 -c 2 -a 0 -i 50 -k RTR 
- -t 126.088519804 -s 1 -d 2 -p cbr -e 220 -c 2 -a 0 -i 50 -k RTR
h -t 126.088519804 -s 1 -d 2 -p cbr -e 220 -c 2 -a 0 -i 50 -k RTR
r -t 126.092045304 -s 2 -d 2 -p cbr -e 220 -c 2 -a 0 -i 50 -k AGT
+ -t 128.881714620 -s 0 -d -1 -p cbr -e 200 -c 2 -a 0 -i 51 -k AGT 
- -t 128.881714620 -s 0 -d -1 -p cbr -e 200 -c 2 -a 0 -i 51 -k AGT
h -t 128.881714620 -s 0 -d -1 -p cbr -e 200 -c 2 -a 0 -i 51 -k AGT
+ -t 128.881714620 -s 0 -d 1 -p cbr -e 220 -c 2 -a 0 -i 51 -k RTR 
- -t 128.881714620 -s 0 -d 1 -p cbr -e 220 -c 2 -a 0 -i 51 -k RTR
h -t 128.881714620 -s 0 -d 1 -p cbr -e 220 -c 2 -a 0 -i 51 -k RTR
+ -t 128.884816120 -s 1 -d 2 -p cbr -e 220 -c 2 -a 0 -i 51 -k RTR 
- -t 128.884816120 -s 1 -d 2 -p cbr -e 220 -c 2 -a 0 -i 51 -k RTR
h -t 128.884816120 -s 1 -d 2 -p cbr -e 220 -c 2 -a 0 -i 51 -k RTR
r -t 128.888481620 -s 2 -d 2 -p cbr -e 220 -c 2 -a 0 -i 51 -k AGT
+ -t 129.550256003 -s 0 -d -1 -p message -e 56 -c 2 -a 0 -i 52 -k RTR 
- -t 129.550256003 -s 0 -d -1 -p message -e 56 -c 2 -a 0 -i 52 -k RTR
h -t 129.550256003 -s 0 -d -1 -p message -e 56 -c 2 -a 0 -i 52 -k RTR
r -t 129.551748503 -s 1 -d -1 -p message -e 56 -c 2 -a 0 -i 52 -k RTR
+ -t 130.746975378 -s 0 -d -1 -p cbr -e 200 -c 2 -a 0 -i 53 -k AGT 
- -t 130.746975378 -s 0 -d -1 -p cbr -e 200 -c 2 -a 0 -i 53 -k AGT
h -t 130.746975378 -s 0 -d -1 -p cbr -e 200 -c 2 -a 0 -i 53 -k AGT
+ -t 130.746975378 -s 0 -d 1 -p cbr -e 220 -c 2 -a 0 -i 53 -k RTR 
- -t 130.746975378 -s 0 -d 1 -p cbr -e 220 -c 2 -a 0 -i 53 -k RTR
h -t 130.746975378 -s 0 -d 1 -p cbr -e 220 -c 2 -a 0 -i 53 -k RTR
+ -t 130.750136878 -s 1 -d 2 -p cbr -e 220 -c 2 -a 0 -i 53 -k RTR 
- -t 130.750136878 -s 1 -d 2 -p cbr -e 220 -c 2 -a 0 -i 53 -k RTR
h -t 130.750136878 -s 1 -d 2 -p cbr -e 220 -c 2 -a 0 -i 53 -k RTR
r -t 130.753422378 -s 2 -d 2 -p cbr -e 220 -c 2 -a 0 -i 53 -k AGT
+ -t 131.979456962 -s 2 -d -1 -p message -e 56 -c 2 -a 0 -i 54 -k RTR 
- -t 131.979456962 -s 2 -d -1 -p message -e 56 -c 2 -a 0 -i 54 -k RTR
h -t 131.979456962 -s 2 -d -1 -p message -e 56 -c 2 -a 0 -i 54 -k RTR
r -t 131.980689462 -s 1 -d -1 -p message -e 56 -c 2 -a 0 -i 54 -k RTR
+ -t 132.046374141 -s 0 -d -1 -p cbr -e 200 -c 2 -a 0 -i 55 -k AGT 
- -t 132.046374141 -s 0 -d -1 -p cbr -e 200 -c 2 -a 0 -i 55 -k AGT
h -t 132.046374141 -s 0 -d -1 -p cbr -e 200 -c 2 -a 0 -i 55 -k AGT
+ -t 132.046374141 -s 0 -d 1 -p cbr -e 220 -c 2 -a 0 -i 55 -k RTR 
- -t 132.046374141 -s 0 -d 1 -p cbr -e 220 -c 2 -a 0 -i 55 -k RTR
h -t 132.046374141 -s 0 -d 1 -p cbr -e 220 -c 2 -a 0 -i 55 -k RTR
+ -t 132.049855641 -s 1 -d 2 -p cbr -e 220 -c 2 -a 0 -i 55 -k RTR 
- -t 132.049855641 -s 1 -d 2 -p cbr -e 220 -c 2 -a 0 -i 55 -k RTR
h -t 132.049855641 -s 1 -d 2 -p cbr -e 220 -c 2 -a 0 -i 55 -k RTR
r -t 132.053561141 -s 2 -d 2 -p cbr -e 220 -c 2 -a 0 -i 55 -k AGT
+ -t 133.745444303 -s 1 -d -1 -p message -e 44 -c 2 -a 0 -i 56 -k RTR 
- -t 133.745444303 -s 1 -d -1 -p message -e 44 -c 2 -a 0 -i 56 -k RTR
h -t 133.745444303 -s 1 -d -1 -p message -e 44 -c 2 -a 0 -i 56 -k RTR
r -t 133.746560803 -s 0 -d -1 -p message -e 44 -c 2 -a 0 -i 56 -k RTR
r -t 133.746560803 -s 2 -d -1 -p message -e 44 -c 2 -a 0 -i 56 -k RTR
+ -t 133.794045770 -s 0 -d -1 -p cbr -e 200 -c 2 -a 0 -i 57 -k AGT 
- -t 133.794045770 -s 0 -d -1 -p cbr -e 200 -c 2 -a 0 -i 57 -k AGT
h -t 133.794045770 -s 0 -d -1 -p cbr -e 200 -c 2 -a 0 -i 57 -k AGT
+ -t 133.794045770 -s 0 -d 1 -p cbr -e 220 -c 2 -a 0 -i 57 -k RTR 
- -t 133.794045770 -s 0 -d 1 -p cbr -e 220 -c 2 -a 0 -i 57 -k RTR
h -t 133.794045770 -s 0 -d 1 -p cbr -e 220 -c 2 -a 0 -i 57 -k RTR
+ -t 133.797467270 -s 1 -d 2 -p cbr -e 220 -c 2 -a 0 -i 57 -k RTR 
- -t 133.797467270 -s 1 -d 2 -p cbr -e 220 -c 2 -a 0 -i 57 -k RTR
h -t 133.797467270 -s 1 -d 2 -p cbr -e 220 -c 2 -a 0 -i 57 -k RTR
r -t 133.801292770 -s 2 -d 2 -p cbr -e 220 -c 2 -a 0 -i 57 -k AGT
+ -t 135.955354627 -s 0 -d -1 -p cbr -e 200 -c 2 -a 0 -i 58 -k AGT 
- -t 135.955354627 -s 0 -d -1 -p cbr -e 200 -c 2 -a 0 -i 58 -k AGT
h -t 135.955354627 -s 0 -d -1 -p cbr -e 200 -c 2 -a 0 -i 58 -k AGT
+ -t 135.955354627 -s 0 -d 1 -p cbr -e 220 -c 2 -a 0 -i 58 -k RTR 
- -t 135.955354627 -s 0 -d 1 -p cbr -e 220 -c 2 -a 0 -i 58 -k RTR
h -t 135.955354627 -s 0 -d 1 -p cbr -e 220 -c 2 -a 0 -i 58 -k RTR
+ -t 135.958736127 -s 1 -d 2 -p cbr -e 220 -c 2 -a 0 -i 58 -k RTR 
- -t 135.958736127 -s 1 -d 2 -p cbr -e 220 -c 2 -a 0 -i 58 -k RTR
h -t 135.958736127 -s 1 -d 2 -p cbr -e 220 -c 2 -a 0 -i 58 -k RTR
r -t 135.962541627 -s 2 -d 2 -p cbr -e 220 -c 2 -a 0 -i 58 -k AGT
+ -t 138.640654686 -s 0 -d -1 -p cbr -e 200 -c 2 -a 0 -i 59 -k AGT 
- -t 138.640654686 -s 0 -d -1 -p cbr -e 200 -c 2 -a 0 -i 59 -k AGT
h -t 138.640654686 -s 0 -d -1 -p cbr -e 200 -c 2 -a 0 -i 59 -k AGT
+ -t 138.640654686 -s 0 -d 1 -p cbr -e 220 -c 2 -a 0 -i 59 -k RTR 
- -t 138.640654686 -s 0 -d 1 -p cbr -e 220 -c 2 -a 0 -i 59 -k RTR
h -t 138.640654686 -s 0 -d 1 -p cbr -e 220 -c 2 -a 0 -i 59 -k RTR
+ -t 138.643876186 -s 1 -d 2 -p cbr -e 220 -c 2 -a 0 -i 59 -k RTR 
- -t 138.643876186 -s 1 -d 2 -p cbr -e 220 -c 2 -a 0 -i 59 -k RTR
h -t 138.643876186 -s 1 -d 2 -p cbr -e 220 -c 2 -a 0 -i 59 -k RTR
r -t 138.647141686 -s 2 -d 2 -p cbr -e 220 -c 2 -a 0 -i 59 -k AGT
+ -t 141.361975935 -s 0 -d -1 -p cbr -e 200 -c 2 -a 0 -i 60 -k AGT 
- -t 141.361975935 -s 0 -d -1 -p cbr -e 200 -c 2 -a 0 -i 60 -k AGT
h -t 141.361975935 -s 0 -d -1 -p cbr -e 200 -c 2 -a 0 -i 60 -k AGT
+ -t 141.361975935 -s 0 -d 1 -p cbr -e 220 -c 2 -a 0 -i 60 -k RTR 
- -t 141.361975935 -s 0 -d 1 -p cbr -e 220 -c 2 -a 0 -i 60 -k RTR
h -t 141.361975935 -s 0 -d 1 -p cbr -e 220 -c 2 -a 0 -i 60 -k RTR
+ -t 141.365457435 -s 1 -d 2 -p cbr -e 220 -c 2 -a 0 -i 60 -k RTR 
- -t 141.365457435 -s 1 -d 2 -p cbr -e 220 -c 2 -a 0 -i 60 -k RTR
h -t 141.365457435 -s 1 -d 2 -p cbr -e 220 -c 2 -a 0 -i 60 -k RTR
r -t 141.368902935 -s 2 -d 2 -p cbr -e 220 -c 2 -a 0 -i 60 -k AGT
+ -t 143.899346888 -s 0 -d -1 -p cbr -e 200 -c 2 -a 0 -i 61 -k AGT 
- -t 143.899346888 -s 0 -d -1 -p cbr -e 200 -c 2 -a 0 -i 61 -k AGT
h -t 143.899346888 -s 0 -d -1 -p cbr -e 200 -c 2 -a 0 -i 61 -k AGT
+ -t 143.899346888 -s 0 -d 1 -p cbr -e 220 -c 2 -a 0 -i 61 -k RTR 
- -t 143.899346888 -s 0 -d 1 -p cbr -e 220 -c 2 -a 0 -i 61 -k RTR
h -t 143.899346888 -s 0 -d 1 -p cbr -e 220 -c 2 -a 0 -i 61 -k RTR
+ -t 143.902468388 -s 1 -d 2 -p cbr -e 220 -c 2 -a 0 -i 61 -k RTR 
- -t 143.902468388 -s 1 -d 2 -p cbr -e 220 -c 2 -a 0 -i 61 -k RTR
h -t 143.902468388 -s 1 -d 2 -p cbr -e 220 -c 2 -a 0 -i 61 -k RTR
r -t 143.906073888 -s 2 -d 2 -p cbr -e 220 -c 2 -a 0 -i 61 -k AGT
+ -t 144.355344368 -s 0 -d -1 -p message -e 56 -c 2 -a 0 -i 62 -k RTR 
- -t 144.355344368 -s 0 -d -1 -p message -e 56 -c 2 -a 0 -i 62 -k RTR
h -t 144.355344368 -s 0 -d -1 -p message -e 56 -c 2 -a 0 -i 62 -k RTR
r -t 144.356496868 -s 1 -d -1 -p message -e 56 -c 2 -a 0 -i 62 -k RTR
+ -t 144.370317832 -s 2 -d -1 -p message -e 56 -c 2 -a 0 -i 63 -k RTR 
- -t 144.370317832 -s 2 -d -1 -p message -e 56 -c 2 -a 0 -i 63 -k RTR
h -t 144.370317832 -s 2 -d -1 -p message -e 56 -c 2 -a 0 -i 63 -k RTR
r -t 144.371710332 -s 1 -d -1 -p message -e 56 -c 2 -a 0 -i 63 -k RTR
+ -t 145.580771608 -s 0 -d -1 -p cbr -e 200 -c 2 -a 0 -i 64 -k AGT 
- -t 145.580771608 -s 0 -d -1 -p cbr -e 200 -c 2 -a 0 -i 64 -k AGT
h -t 145.580771608 -s 0 -d -1 -p cbr -e 200 -c 2 -a 0 -i 64 -k AGT
+ -t 145.580771608 -s 0 -d 1 -p cbr -e 220 -c 2 -a 0 -i 64 -k RTR 
- -t 145.580771608 -s 0 -d 1 -p cbr -e 220 -c 2 -a 0 -i 64 -k RTR
h -t 145.580771608 -s 0 -d 1 -p cbr -e 220 -c 2 -a 0 -i 64 -k RTR
+ -t 145.584153108 -s 1 -d 2 -p cbr -e 220 -c 2 -a 0 -i 64 -k RTR 
- -t 145.584153108 -s 1 -d 2 -p cbr -e 220 -c 2 -a 0 -i 64 -k RTR
h -t 145.584153108 -s 1 -d 2 -p cbr -e 220 -c 2 -a 0 -i 64 -k RTR
r -t 145.587678608 -s 2 -d 2 -p cbr -e 220 -c 2 -a 0 -i 64 -k AGT
+ -t 146.721253316 -s 1 -d -1 -p message -e 32 -c 2 -a 0 -i 65 -k RTR 
- -t 146.721253316 -s 1 -d -1 -p message -e 32 -c 2 -a 0 -i 65 -k RTR
h -t 146.721253316 -s 1 -d -1 -p message -e 32 -c 2 -a 0 -i 65 -k RTR
r -t 146.722133816 -s 0 -d -1 -p message -e 32 -c 2 -a 0 -i 65 -k RTR
r -t 146.722133816 -s 2 -d -1 -p message -e 32 -c 2 -a 0 -i 65 -k RTR
+ -t 147.378332825 -s 0 -d -1 -p cbr -e 200 -c 2 -a 0 -i 66 -k AGT 
- -t 147.378332825 -s 0 -d -1 -p cbr -e 200 -c 2 -a 0 -i 66 -k AGT
h -t 147.378332825 -s 0 -d -1 -p cbr -e 200 -c 2 -a 0 -i 66 -k AGT
+ -t 147.378332825 -s 0 -d 1 -p cbr -e 220 -c 2 -a 0 -i 66 -k RTR 
- -t 147.378332825 -s 0 -d 1 -p cbr -e 220 -c 2 -a 0 -i 66 -k RTR
h -t 147.378332825 -s 0 -d 1 -p cbr -e 220 -c 2 -a 0 -i 66 -k RTR
+ -t 147.381854325 -s 1 -d 2 -p cbr -e 220 -c 2 -a 0 -i 66 -k RTR 
- -t 147.381854325 -s 1 -d 2 -p cbr -e 220 -c 2 -a 0 -i 66 -k RTR
h -t 147.381854325 -s 1 -d 2 -p cbr -e 220 -c 2 -a 0 -i 66 -k RTR
r -t 147.385619825 -s 2 -d 2 -p cbr -e 220 -c 2 -a 0 -i 66 -k AGT
+ -t 149.316739623 -s 0 -d -1 -p cbr -e 200 -c 2 -a 0 -i 67 -k AGT 
- -t 149.316739623 -s 0 -d -1 -p cbr -e 200 -c 2 -a 0 -i 67 -k AGT
h -t 149.316739623 -s 0 -d -1 -p cbr -e 200 -c 2 -a 0 -i 67 -k AGT
+ -t 149.316739623 -s 0 -d 1 -p cbr -e 220 -c 2 -a 0 -i 67 -k RTR 
- -t 149.316739623 -s 0 -d 1 -p cbr -e 220 -c 2 -a 0 -i 67 -k RTR
h -t 149.316739623 -s 0 -d 1 -p cbr -e 220 -c 2 -a 0 -i 67 -k RTR
+ -t 149.320341123 -s 1 -d 2 -p cbr -e 220 -c 2 -a 0 -i 67 -k RTR 
- -t 149.320341123 -s 1 -d 2 -p cbr -e 220 -c 2 -a 0 -i 67 -k RTR
h -t 149.320341123 -s 1 -d 2 -p cbr -e 220 -c 2 -a 0 -i 67 -k RTR
r -t 149.323746623 -s 2 -d 2 -p cbr -e 220 -c 2 -a 0 -i 67 -k AGT
+ -t 151.268172658 -s 0 -d -1 -p cbr -e 200 -c 2 -a 0 -i 68 -k AGT 
- -t 151.268172658 -s 0 -d -1 -p cbr -e 200 -c 2 -a 0 -i 68 -k AGT
h -t 151.268172658 -s 0 -d -1 -p cbr -e 200 -c 2 -a 0 -i 68 -k AGT
+ -t 151.268172658 -s 0 -d 1 -p cbr -e 220 -c 2 -a 0 -i 68 -k RTR 
- -t 151.268172658 -s 0 -d 1 -p cbr -e 220 -c 2 -a 0 -i 68 -k RTR
h -t 151.268172658 -s 0 -d 1 -p cbr -e 220 -c 2 -a 0 -i 68 -k RTR
+ -t 151.271414158 -s 1 -d 2 -p cbr -e 220 -c 2 -a 0 -i 68 -k RTR 
- -t 151.271414158 -s 1 -d 2 -p cbr -e 220 -c 2 -a 0 -i 68 -k RTR
h -t 151.271414158 -s 1 -d 2 -p cbr -e 220 -c 2 -a 0 -i 68 -k RTR
r -t 151.275279658 -s 2 -d 2 -p cbr -e 220 -c 2 -a 0 -i 68 -k AGT