+ 1 0 2 cbr 1500 ------- 0 0.0 4.0 0 0
- 1 0 2 cbr 1500 ------- 0 0.0 4.0 0 0
+ 1.012 0 2 cbr 1500 ------- 0 0.0 4.0 1 1
- 1.012 0 2 cbr 1500 ------- 0 0.0 4.0 1 1
r 1.016 0 2 cbr 1500 ------- 0 0.0 4.0 0 0
+ 1.016 2 3 cbr 1500 ------- 0 0.0 4.0 0 0
- 1.016 2 3 cbr 1500 ------- 0 0.0 4.0 0 0
+ 1.024 0 2 cbr 1500 ------- 0 0.0 4.0 2 2
- 1.024 0 2 cbr 1500 ------- 0 0.0 4.0 2 2
r 1.028 0 2 cbr 1500 ------- 0 0.0 4.0 1 1
+ 1.028 2 3 cbr 1500 ------- 0 0.0 4.0 1 1
- 1.028 2 3 cbr 1500 ------- 0 0.0 4.0 1 1
+ 1.036 0 2 cbr 1500 ------- 0 0.0 4.0 3 3
- 1.036 0 2 cbr 1500 ------- 0 0.0 4.0 3 3
r 1.04 0 2 cbr 1500 ------- 0 0.0 4.0 2 2
+ 1.04 2 3 cbr 1500 ------- 0 0.0 4.0 2 2
- 1.04 2 3 cbr 1500 ------- 0 0.0 4.0 2 2
r 1.048 2 3 cbr 1500 ------- 0 0.0 4.0 0 0
+ 1.048 3 4 cbr 1500 ------- 0 0.0 4.0 0 0
- 1.048 3 4 cbr 1500 ------- 0 0.0 4.0 0 0
+ 1.048 0 2 cbr 1500 ------- 0 0.0 4.0 4 4
- 1.048 0 2 cbr 1500 ------- 0 0.0 4.0 4 4
r 1.052 0 2 cbr 1500 ------- 0 0.0 4.0 3 3
+ 1.052 2 3 cbr 1500 ------- 0 0.0 4.0 3 3
- 1.052 2 3 cbr 1500 ------- 0 0.0 4.0 3 3
r 1.06 2 3 cbr 1500 ------- 0 0.0 4.0 1 1
+ 1.06 3 4 cbr 1500 ------- 0 0.0 4.0 1 1
- 1.06 3 4 cbr 1500 ------- 0 0.0 4.0 1 1
+ 1.06 0 2 cbr 1500 ------- 0 0.0 4.0 5 5
- 1.06 0 2 cbr 1500 ------- 0 0.0 4.0 5 5
r 1.064 3 4 cbr 1500 ------- 0 0.0 4.0 0 0
r 1.064 0 2 cbr 1500 ------- 0 0.0 4.0 4 4
+ 1.064 2 3 cbr 1500 ------- 0 0.0 4.0 4 4
- 1.064 2 3 cbr 1500 ------- 0 0.0 4.0 4 4
r 1.072 2 3 cbr 1500 ------- 0 0.0 4.0 2 2
+ 1.072 3 4 cbr 1500 ------- 0 0.0 4.0 2 2
- 1.072 3 4 cbr 1500 ------- 0 0.0 4.0 2 2
+ 1.072 0 2 cbr 1500 ------- 0 0.0 4.0 6 6
- 1.072 0 2 cbr 1500 ------- 0 0.0 4.0 6 6
r 1.076 3 4 cbr 1500 ------- 0 0.0 4.0 1 1
r 1.076 0 2 cbr 1500 ------- 0 0.0 4.0 5 5
+ 1.076 2 3 cbr 1500 ------- 0 0.0 4.0 5 5
- 1.076 2 3 cbr 1500 ------- 0 0.0 4.0 5 5
r 1.084 2 3 cbr 1500 ------- 0 0.0 4.0 3 3
+ 1.084 3 4 cbr 1500 ------- 0 0.0 4.0 3 3
- 1.084 3 4 cbr 1500 ------- 0 0.0 4.0 3 3
+ 1.084 0 2 cbr 1500 ------- 0 0.0 4.0 7 7
- 1.084 0 2 cbr 1500 ------- 0 0.0 4.0 7 7
r 1.088 3 4 cbr 1500 ------- 0 0.0 4.0 2 2
r 1.088 0 2 cbr 1500 ------- 0 0.0 4.0 6 6
+ 1.088 2 3 cbr 1500 ------- 0 0.0 4.0 6 6
- 1.088 2 3 cbr 1500 ------- 0 0.0 4.0 6 6
r 1.096 2 3 cbr 1500 ------- 0 0.0 4.0 4 4
+ 1.096 3 4 cbr 1500 ------- 0 0.0 4.0 4 4
- 1.096 3 4 cbr 1500 ------- 0 0.0 4.0 4 4
+ 1.096 0 2 cbr 1500 ------- 0 0.0 4.0 8 8
- 1.096 0 2 cbr 1500 ------- 0 0.0 4.0 8 8
r 1.1 3 4 cbr 1500 ------- 0 0.0 4.0 3 3
r 1.1 0 2 cbr 1500 ------- 0 0.0 4.0 7 7
+ 1.1 2 3 cbr 1500 ------- 0 0.0 4.0 7 7
- 1.1 2 3 cbr 1500 ------- 0 0.0 4.0 7 7
r 1.108 2 3 cbr 1500 ------- 0 0.0 4.0 5 5
+ 1.108 3 4 cbr 1500 ------- 0 0.0 4.0 5 5
- 1.108 3 4 cbr 1500 ------- 0 0.0 4.0 5 5
+ 1.108 0 2 cbr 1500 ------- 0 0.0 4.0 9 9
- 1.108 0 2 cbr 1500 ------- 0 0.0 4.0 9 9
r 1.112 3 4 cbr 1500 ------- 0 0.0 4.0 4 4
r 1.112 0 2 cbr 1500 ------- 0 0.0 4.0 8 8
+ 1.112 2 3 cbr 1500 ------- 0 0.0 4.0 8 8
- 1.112 2 3 cbr 1500 ------- 0 0.0 4.0 8 8
r 1.12 2 3 cbr 1500 ------- 0 0.0 4.0 6 6
+ 1.12 3 4 cbr 1500 ------- 0 0.0 4.0 6 6
- 1.12 3 4 cbr 1500 ------- 0 0.0 4.0 6 6
+ 1.12 0 2 cbr 1500 ------- 0 0.0 4.0 10 10
- 1.12 0 2 cbr 1500 ------- 0 0.0 4.0 10 10
r 1.124 3 4 cbr 1500 ------- 0 0.0 4.0 5 5
r 1.124 0 2 cbr 1500 ------- 0 0.0 4.0 9 9
+ 1.124 2 3 cbr 1500 ------- 0 0.0 4.0 9 9
- 1.124 2 3 cbr 1500 ------- 0 0.0 4.0 9 9
r 1.132 2 3 cbr 1500 ------- 0 0.0 4.0 7 7
+ 1.132 3 4 cbr 1500 ------- 0 0.0 4.0 7 7
- 1.132 3 4 cbr 1500 ------- 0 0.0 4.0 7 7
+ 1.132 0 2 cbr 1500 ------- 0 0.0 4.0 11 11
- 1.132 0 2 cbr 1500 ------- 0 0.0 4.0 11 11
r 1.136 3 4 cbr 1500 ------- 0 0.0 4.0 6 6
r 1.136 0 2 cbr 1500 ------- 0 0.0 4.0 10 10
+ 1.136 2 3 cbr 1500 ------- 0 0.0 4.0 10 10
- 1.136 2 3 cbr 1500 ------- 0 0.0 4.0 10 10
r 1.144 2 3 cbr 1500 ------- 0 0.0 4.0 8 8
+ 1.144 3 4 cbr 1500 ------- 0 0.0 4.0 8 8
- 1.144 3 4 cbr 1500 ------- 0 0.0 4.0 8 8
+ 1.144 0 2 cbr 1500 ------- 0 0.0 4.0 12 12
- 1.144 0 2 cbr 1500 ------- 0 0.0 4.0 12 12
r 1.148 3 4 cbr 1500 ------- 0 0.0 4.0 7 7
r 1.148 0 2 cbr 1500 ------- 0 0.0 4.0 11 11
+ 1.148 2 3 cbr 1500 ------- 0 0.0 4.0 11 11
- 1.148 2 3 cbr 1500 ------- 0 0.0 4.0 11 11
r 1.156 2 3 cbr 1500 ------- 0 0.0 4.0 9 9
+ 1.156 3 4 cbr 1500 ------- 0 0.0 4.0 9 9
- 1.156 3 4 cbr 1500 ------- 0 0.0 4.0 9 9
+ 1.156 0 2 cbr 1500 ------- 0 0.0 4.0 13 13
- 1.156 0 2 cbr 1500 ------- 0 0.0 4.0 13 13
r 1.16 3 4 cbr 1500 ------- 0 0.0 4.0 8 8
r 1.16 0 2 cbr 1500 ------- 0 0.0 4.0 12 12
+ 1.16 2 3 cbr 1500 ------- 0 0.0 4.0 12 12
- 1.16 2 3 cbr 1500 ------- 0 0.0 4.0 12 12
r 1.168 2 3 cbr 1500 ------- 0 0.0 4.0 10 10
+ 1.168 3 4 cbr 1500 ------- 0 0.0 4.0 10 10
- 1.168 3 4 cbr 1500 ------- 0 0.0 4.0 10 10
+ 1.168 0 2 cbr 1500 ------- 0 0.0 4.0 14 14
- 1.168 0 2 cbr 1500 ------- 0 0.0 4.0 14 14
r 1.172 3 4 cbr 1500 ------- 0 0.0 4.0 9 9
r 1.172 0 2 cbr 1500 ------- 0 0.0 4.0 13 13
+ 1.172 2 3 cbr 1500 ------- 0 0.0 4.0 13 13
- 1.172 2 3 cbr 1500 ------- 0 0.0 4.0 13 13
r 1.18 2 3 cbr 1500 ------- 0 0.0 4.0 11 11
+ 1.18 3 4 cbr 1500 ------- 0 0.0 4.0 11 11
- 1.18 3 4 cbr 1500 ------- 0 0.0 4.0 11 11
+ 1.18 0 2 cbr 1500 ------- 0 0.0 4.0 15 15
- 1.18 0 2 cbr 1500 ------- 0 0.0 4.0 15 15
r 1.184 3 4 cbr 1500 ------- 0 0.0 4.0 10 10
r 1.184 0 2 cbr 1500 ------- 0 0.0 4.0 14 14
+ 1.184 2 3 cbr 1500 ------- 0 0.0 4.0 14 14
- 1.184 2 3 cbr 1500 ------- 0 0.0 4.0 14 14
r 1.192 2 3 cbr 1500 ------- 0 0.0 4.0 12 12
+ 1.192 3 4 cbr 1500 ------- 0 0.0 4.0 12 12
- 1.192 3 4 cbr 1500 ------- 0 0.0 4.0 12 12
+ 1.192 0 2 cbr 1500 ------- 0 0.0 4.0 16 16
- 1.192 0 2 cbr 1500 ------- 0 0.0 4.0 16 16
r 1.196 3 4 cbr 1500 ------- 0 0.0 4.0 11 11
r 1.196 0 2 cbr 1500 ------- 0 0.0 4.0 15 15
+ 1.196 2 3 cbr 1500 ------- 0 0.0 4.0 15 15
- 1.196 2 3 cbr 1500 ------- 0 0.0 4.0 15 15
r 1.204 2 3 cbr 1500 ------- 0 0.0 4.0 13 13
+ 1.204 3 4 cbr 1500 ------- 0 0.0 4.0 13 13
- 1.204 3 4 cbr 1500 ------- 0 0.0 4.0 13 13
+ 1.204 0 2 cbr 1500 ------- 0 0.0 4.0 17 17
- 1.204 0 2 cbr 1500 ------- 0 0.0 4.0 17 17
r 1.208 3 4 cbr 1500 ------- 0 0.0 4.0 12 12
r 1.208 0 2 cbr 1500 ------- 0 0.0 4.0 16 16
+ 1.208 2 3 cbr 1500 ------- 0 0.0 4.0 16 16
- 1.208 2 3 cbr 1500 ------- 0 0.0 4.0 16 16
r 1.216 2 3 cbr 1500 ------- 0 0.0 4.0 14 14
+ 1.216 3 4 cbr 1500 ------- 0 0.0 4.0 14 14
- 1.216 3 4 cbr 1500 ------- 0 0.0 4.0 14 14
+ 1.216 0 2 cbr 1500 ------- 0 0.0 4.0 18 18
- 1.216 0 2 cbr 1500 ------- 0 0.0 4.0 18 18
r 1.22 3 4 cbr 1500 ------- 0 0.0 4.0 13 13
r 1.22 0 2 cbr 1500 ------- 0 0.0 4.0 17 17
+ 1.22 2 3 cbr 1500 ------- 0 0.0 4.0 17 17
- 1.22 2 3 cbr 1500 ------- 0 0.0 4.0 17 17
r 1.228 2 3 cbr 1500 ------- 0 0.0 4.0 15 15
+ 1.228 3 4 cbr 1500 ------- 0 0.0 4.0 15 15
- 1.228 3 4 cbr 1500 ------- 0 0.0 4.0 15 15
+ 1.228 0 2 cbr 1500 ------- 0 0.0 4.0 19 19
- 1.228 0 2 cbr 1500 ------- 0 0.0 4.0 19 19
r 1.232 3 4 cbr 1500 ------- 0 0.0 4.0 14 14
r 1.232 0 2 cbr 1500 ------- 0 0.0 4.0 18 18
+ 1.232 2 3 cbr 1500 ------- 0 0.0 4.0 18 18
- 1.232 2 3 cbr 1500 ------- 0 0.0 4.0 18 18
r 1.24 2 3 cbr 1500 ------- 0 0.0 4.0 16 16
+ 1.24 3 4 cbr 1500 ------- 0 0.0 4.0 16 16
- 1.24 3 4 cbr 1500 ------- 0 0.0 4.0 16 16
+ 1.24 0 2 cbr 1500 ------- 0 0.0 4.0 20 20
- 1.24 0 2 cbr 1500 ------- 0 0.0 4.0 20 20
r 1.244 3 4 cbr 1500 ------- 0 0.0 4.0 15 15
r 1.244 0 2 cbr 1500 ------- 0 0.0 4.0 19 19
+ 1.244 2 3 cbr 1500 ------- 0 0.0 4.0 19 19
- 1.244 2 3 cbr 1500 ------- 0 0.0 4.0 19 19
r 1.252 2 3 cbr 1500 ------- 0 0.0 4.0 17 17
+ 1.252 3 4 cbr 1500 ------- 0 0.0 4.0 17 17
- 1.252 3 4 cbr 1500 ------- 0 0.0 4.0 17 17
+ 1.252 0 2 cbr 1500 ------- 0 0.0 4.0 21 21
- 1.252 0 2 cbr 1500 ------- 0 0.0 4.0 21 21
r 1.256 3 4 cbr 1500 ------- 0 0.0 4.0 16 16
r 1.256 0 2 cbr 1500 ------- 0 0.0 4.0 20 20
+ 1.256 2 3 cbr 1500 ------- 0 0.0 4.0 20 20
- 1.256 2 3 cbr 1500 ------- 0 0.0 4.0 20 20
r 1.264 2 3 cbr 1500 ------- 0 0.0 4.0 18 18
+ 1.264 3 4 cbr 1500 ------- 0 0.0 4.0 18 18
- 1.264 3 4 cbr 1500 ------- 0 0.0 4.0 18 18
+ 1.264 0 2 cbr 1500 ------- 0 0.0 4.0 22 22
- 1.264 0 2 cbr 1500 ------- 0 0.0 4.0 22 22
r 1.268 3 4 cbr 1500 ------- 0 0.0 4.0 17 17
r 1.268 0 2 cbr 1500 ------- 0 0.0 4.0 21 21
+ 1.268 2 3 cbr 1500 ------- 0 0.0 4.0 21 21
- 1.268 2 3 cbr 1500 ------- 0 0.0 4.0 21 21
r 1.276 2 3 cbr 1500 ------- 0 0.0 4.0 19 19
+ 1.276 3 4 cbr 1500 ------- 0 0.0 4.0 19 19
- 1.276 3 4 cbr 1500 ------- 0 0.0 4.0 19 19
+ 1.276 0 2 cbr 1500 ------- 0 0.0 4.0 23 23
- 1.276 0 2 cbr 1500 ------- 0 0.0 4.0 23 23
r 1.28 3 4 cbr 1500 ------- 0 0.0 4.0 18 18
r 1.28 0 2 cbr 1500 ------- 0 0.0 4.0 22 22
+ 1.28 2 3 cbr 1500 ------- 0 0.0 4.0 22 22
- 1.28 2 3 cbr 1500 ------- 0 0.0 4.0 22 22
r 1.288 2 3 cbr 1500 ------- 0 0.0 4.0 20 20
+ 1.288 3 4 cbr 1500 ------- 0 0.0 4.0 20 20
- 1.288 3 4 cbr 1500 ------- 0 0.0 4.0 20 20
+ 1.288 0 2 cbr 1500 ------- 0 0.0 4.0 24 24
- 1.288 0 2 cbr 1500 ------- 0 0.0 4.0 24 24
r 1.292 3 4 cbr 1500 ------- 0 0.0 4.0 19 19
r 1.292 0 2 cbr 1500 ------- 0 0.0 4.0 23 23
+ 1.292 2 3 cbr 1500 ------- 0 0.0 4.0 23 23
- 1.292 2 3 cbr 1500 ------- 0 0.0 4.0 23 23
r 1.3 2 3 cbr 1500 ------- 0 0.0 4.0 21 21
+ 1.3 3 4 cbr 1500 ------- 0 0.0 4.0 21 21
- 1.3 3 4 cbr 1500 ------- 0 0.0 4.0 21 21
+ 1.3 0 2 cbr 1500 ------- 0 0.0 4.0 25 25
- 1.3 0 2 cbr 1500 ------- 0 0.0 4.0 25 25
r 1.304 3 4 cbr 1500 ------- 0 0.0 4.0 20 20
r 1.304 0 2 cbr 1500 ------- 0 0.0 4.0 24 24
+ 1.304 2 3 cbr 1500 ------- 0 0.0 4.0 24 24
- 1.304 2 3 cbr 1500 ------- 0 0.0 4.0 24 24
r 1.312 2 3 cbr 1500 ------- 0 0.0 4.0 22 22
+ 1.312 3 4 cbr 1500 ------- 0 0.0 4.0 22 22
- 1.312 3 4 cbr 1500 ------- 0 0.0 4.0 22 22
+ 1.312 0 2 cbr 1500 ------- 0 0.0 4.0 26 26
- 1.312 0 2 cbr 1500 ------- 0 0.0 4.0 26 26
r 1.316 3 4 cbr 1500 ------- 0 0.0 4.0 21 21
r 1.316 0 2 cbr 1500 ------- 0 0.0 4.0 25 25
+ 1.316 2 3 cbr 1500 ------- 0 0.0 4.0 25 25
- 1.316 2 3 cbr 1500 ------- 0 0.0 4.0 25 25
r 1.324 2 3 cbr 1500 ------- 0 0.0 4.0 23 23
+ 1.324 3 4 cbr 1500 ------- 0 0.0 4.0 23 23
- 1.324 3 4 cbr 1500 ------- 0 0.0 4.0 23 23
+ 1.324 0 2 cbr 1500 ------- 0 0.0 4.0 27 27
- 1.324 0 2 cbr 1500 ------- 0 0.0 4.0 27 27
r 1.328 3 4 cbr 1500 ------- 0 0.0 4.0 22 22
r 1.328 0 2 cbr 1500 ------- 0 0.0 4.0 26 26
+ 1.328 2 3 cbr 1500 ------- 0 0.0 4.0 26 26
- 1.328 2 3 cbr 1500 ------- 0 0.0 4.0 26 26
r 1.336 2 3 cbr 1500 ------- 0 0.0 4.0 24 24
+ 1.336 3 4 cbr 1500 ------- 0 0.0 4.0 24 24
- 1.336 3 4 cbr 1500 ------- 0 0.0 4.0 24 24
+ 1.336 0 2 cbr 1500 ------- 0 0.0 4.0 28 28
- 1.336 0 2 cbr 1500 ------- 0 0.0 4.0 28 28
r 1.34 3 4 cbr 1500 ------- 0 0.0 4.0 23 23
r 1.34 0 2 cbr 1500 ------- 0 0.0 4.0 27 27
+ 1.34 2 3 cbr 1500 ------- 0 0.0 4.0 27 27
- 1.34 2 3 cbr 1500 ------- 0 0.0 4.0 27 27
r 1.348 2 3 cbr 1500 ------- 0 0.0 4.0 25 25
+ 1.348 3 4 cbr 1500 ------- 0 0.0 4.0 25 25
- 1.348 3 4 cbr 1500 ------- 0 0.0 4.0 25 25
+ 1.348 0 2 cbr 1500 ------- 0 0.0 4.0 29 29
- 1.348 0 2 cbr 1500 ------- 0 0.0 4.0 29 29
r 1.352 3 4 cbr 1500 ------- 0 0.0 4.0 24 24
r 1.352 0 2 cbr 1500 ------- 0 0.0 4.0 28 28
+ 1.352 2 3 cbr 1500 ------- 0 0.0 4.0 28 28
- 1.352 2 3 cbr 1500 ------- 0 0.0 4.0 28 28
r 1.36 2 3 cbr 1500 ------- 0 0.0 4.0 26 26
+ 1.36 3 4 cbr 1500 ------- 0 0.0 4.0 26 26
- 1.36 3 4 cbr 1500 ------- 0 0.0 4.0 26 26
+ 1.36 0 2 cbr 1500 ------- 0 0.0 4.0 30 30
- 1.36 0 2 cbr 1500 ------- 0 0.0 4.0 30 30
r 1.364 3 4 cbr 1500 ------- 0 0.0 4.0 25 25
r 1.364 0 2 cbr 1500 ------- 0 0.0 4.0 29 29
+ 1.364 2 3 cbr 1500 ------- 0 0.0 4.0 29 29
- 1.364 2 3 cbr 1500 ------- 0 0.0 4.0 29 29
r 1.372 2 3 cbr 1500 ------- 0 0.0 4.0 27 27
+ 1.372 3 4 cbr 1500 ------- 0 0.0 4.0 27 27
- 1.372 3 4 cbr 1500 ------- 0 0.0 4.0 27 27
+ 1.372 0 2 cbr 1500 ------- 0 0.0 4.0 31 31
- 1.372 0 2 cbr 1500 ------- 0 0.0 4.0 31 31
r 1.376 3 4 cbr 1500 ------- 0 0.0 4.0 26 26
r 1.376 0 2 cbr 1500 ------- 0 0.0 4.0 30 30
+ 1.376 2 3 cbr 1500 ------- 0 0.0 4.0 30 30
- 1.376 2 3 cbr 1500 ------- 0 0.0 4.0 30 30
r 1.384 2 3 cbr 1500 ------- 0 0.0 4.0 28 28
+ 1.384 3 4 cbr 1500 ------- 0 0.0 4.0 28 28
- 1.384 3 4 cbr 1500 ------- 0 0.0 4.0 28 28
+ 1.384 0 2 cbr 1500 ------- 0 0.0 4.0 32 32
- 1.384 0 2 cbr 1500 ------- 0 0.0 4.0 32 32
r 1.388 3 4 cbr 1500 ------- 0 0.0 4.0 27 27
r 1.388 0 2 cbr 1500 ------- 0 0.0 4.0 31 31
+ 1.388 2 3 cbr 1500 ------- 0 0.0 4.0 31 31
- 1.388 2 3 cbr 1500 ------- 0 0.0 4.0 31 31
r 1.396 2 3 cbr 1500 ------- 0 0.0 4.0 29 29
+ 1.396 3 4 cbr 1500 ------- 0 0.0 4.0 29 29
- 1.396 3 4 cbr 1500 ------- 0 0.0 4.0 29 29
+ 1.396 0 2 cbr 1500 ------- 0 0.0 4.0 33 33
- 1.396 0 2 cbr 1500 ------- 0 0.0 4.0 33 33
r 1.4 3 4 cbr 1500 ------- 0 0.0 4.0 28 28
r 1.4 0 2 cbr 1500 ------- 0 0.0 4.0 32 32
+ 1.4 2 3 cbr 1500 ------- 0 0.0 4.0 32 32
- 1.4 2 3 cbr 1500 ------- 0 0.0 4.0 32 32
r 1.408 2 3 cbr 1500 ------- 0 0.0 4.0 30 30
+ 1.408 3 4 cbr 1500 ------- 0 0.0 4.0 30 30
- 1.408 3 4 cbr 1500 ------- 0 0.0 4.0 30 30
+ 1.408 0 2 cbr 1500 ------- 0 0.0 4.0 34 34
- 1.408 0 2 cbr 1500 ------- 0 0.0 4.0 34 34
r 1.412 3 4 cbr 1500 ------- 0 0.0 4.0 29 29
r 1.412 0 2 cbr 1500 ------- 0 0.0 4.0 33 33
+ 1.412 2 3 cbr 1500 ------- 0 0.0 4.0 33 33
- 1.412 2 3 cbr 1500 ------- 0 0.0 4.0 33 33
r 1.42 2 3 cbr 1500 ------- 0 0.0 4.0 31 31
+ 1.42 3 4 cbr 1500 ------- 0 0.0 4.0 31 31
- 1.42 3 4 cbr 1500 ------- 0 0.0 4.0 31 31
+ 1.42 0 2 cbr 1500 ------- 0 0.0 4.0 35 35
- 1.42 0 2 cbr 1500 ------- 0 0.0 4.0 35 35
r 1.424 3 4 cbr 1500 ------- 0 0.0 4.0 30 30
r 1.424 0 2 cbr 1500 ------- 0 0.0 4.0 34 34
+ 1.424 2 3 cbr 1500 ------- 0 0.0 4.0 34 34
- 1.424 2 3 cbr 1500 ------- 0 0.0 4.0 34 34
r 1.432 2 3 cbr 1500 ------- 0 0.0 4.0 32 32
+ 1.432 3 4 cbr 1500 ------- 0 0.0 4.0 32 32
- 1.432 3 4 cbr 1500 ------- 0 0.0 4.0 32 32
+ 1.432 0 2 cbr 1500 ------- 0 0.0 4.0 36 36
- 1.432 0 2 cbr 1500 ------- 0 0.0 4.0 36 36
r 1.436 3 4 cbr 1500 ------- 0 0.0 4.0 31 31
r 1.436 0 2 cbr 1500 ------- 0 0.0 4.0 35 35
+ 1.436 2 3 cbr 1500 ------- 0 0.0 4.0 35 35
- 1.436 2 3 cbr 1500 ------- 0 0.0 4.0 35 35
r 1.444 2 3 cbr 1500 ------- 0 0.0 4.0 33 33
+ 1.444 3 4 cbr 1500 ------- 0 0.0 4.0 33 33
- 1.444 3 4 cbr 1500 ------- 0 0.0 4.0 33 33
+ 1.444 0 2 cbr 1500 ------- 0 0.0 4.0 37 37
- 1.444 0 2 cbr 1500 ------- 0 0.0 4.0 37 37
r 1.448 3 4 cbr 1500 ------- 0 0.0 4.0 32 32
r 1.448 0 2 cbr 1500 ------- 0 0.0 4.0 36 36
+ 1.448 2 3 cbr 1500 ------- 0 0.0 4.0 36 36
- 1.448 2 3 cbr 1500 ------- 0 0.0 4.0 36 36
r 1.456 2 3 cbr 1500 ------- 0 0.0 4.0 34 34
+ 1.456 3 4 cbr 1500 ------- 0 0.0 4.0 34 34
- 1.456 3 4 cbr 1500 ------- 0 0.0 4.0 34 34
+ 1.456 0 2 cbr 1500 ------- 0 0.0 4.0 38 38
- 1.456 0 2 cbr 1500 ------- 0 0.0 4.0 38 38
r 1.46 3 4 cbr 1500 ------- 0 0.0 4.0 33 33
r 1.46 0 2 cbr 1500 ------- 0 0.0 4.0 37 37
+ 1.46 2 3 cbr 1500 ------- 0 0.0 4.0 37 37
- 1.46 2 3 cbr 1500 ------- 0 0.0 4.0 37 37
r 1.468 2 3 cbr 1500 ------- 0 0.0 4.0 35 35
+ 1.468 3 4 cbr 1500 ------- 0 0.0 4.0 35 35
- 1.468 3 4 cbr 1500 ------- 0 0.0 4.0 35 35
+ 1.468 0 2 cbr 1500 ------- 0 0.0 4.0 39 39
- 1.468 0 2 cbr 1500 ------- 0 0.0 4.0 39 39
r 1.472 3 4 cbr 1500 ------- 0 0.0 4.0 34 34
r 1.472 0 2 cbr 1500 ------- 0 0.0 4.0 38 38
+ 1.472 2 3 cbr 1500 ------- 0 0.0 4.0 38 38
- 1.472 2 3 cbr 1500 ------- 0 0.0 4.0 38 38
r 1.48 2 3 cbr 1500 ------- 0 0.0 4.0 36 36
+ 1.48 3 4 cbr 1500 ------- 0 0.0 4.0 36 36
- 1.48 3 4 cbr 1500 ------- 0 0.0 4.0 36 36
+ 1.48 0 2 cbr 1500 ------- 0 0.0 4.0 40 40
- 1.48 0 2 cbr 1500 ------- 0 0.0 4.0 40 40
r 1.484 3 4 cbr 1500 ------- 0 0.0 4.0 35 35
r 1.484 0 2 cbr 1500 ------- 0 0.0 4.0 39 39
+ 1.484 2 3 cbr 1500 ------- 0 0.0 4.0 39 39
- 1.484 2 3 cbr 1500 ------- 0 0.0 4.0 39 39
r 1.492 2 3 cbr 1500 ------- 0 0.0 4.0 37 37
+ 1.492 3 4 cbr 1500 ------- 0 0.0 4.0 37 37
- 1.492 3 4 cbr 1500 ------- 0 0.0 4.0 37 37
+ 1.492 0 2 cbr 1500 ------- 0 0.0 4.0 41 41
- 1.492 0 2 cbr 1500 ------- 0 0.0 4.0 41 41
r 1.496 3 4 cbr 1500 ------- 0 0.0 4.0 36 36
r 1.496 0 2 cbr 1500 ------- 0 0.0 4.0 40 40
+ 1.496 2 3 cbr 1500 ------- 0 0.0 4.0 40 40
- 1.496 2 3 cbr 1500 ------- 0 0.0 4.0 40 40
r 1.504 2 3 cbr 1500 ------- 0 0.0 4.0 38 38
+ 1.504 3 4 cbr 1500 ------- 0 0.0 4.0 38 38
- 1.504 3 4 cbr 1500 ------- 0 0.0 4.0 38 38
+ 1.504 0 2 cbr 1500 ------- 0 0.0 4.0 42 42
- 1.504 0 2 cbr 1500 ------- 0 0.0 4.0 42 42
r 1.508 3 4 cbr 1500 ------- 0 0.0 4.0 37 37
r 1.508 0 2 cbr 1500 ------- 0 0.0 4.0 41 41
+ 1.508 2 3 cbr 1500 ------- 0 0.0 4.0 41 41
- 1.508 2 3 cbr 1500 ------- 0 0.0 4.0 41 41
r 1.516 2 3 cbr 1500 ------- 0 0.0 4.0 39 39
+ 1.516 3 4 cbr 1500 ------- 0 0.0 4.0 39 39
- 1.516 3 4 cbr 1500 ------- 0 0.0 4.0 39 39
+ 1.516 0 2 cbr 1500 ------- 0 0.0 4.0 43 43
- 1.516 0 2 cbr 1500 ------- 0 0.0 4.0 43 43
r 1.52 3 4 cbr 1500 ------- 0 0.0 4.0 38 38
r 1.52 0 2 cbr 1500 ------- 0 0.0 4.0 42 42
+ 1.52 2 3 cbr 1500 ------- 0 0.0 4.0 42 42
- 1.52 2 3 cbr 1500 ------- 0 0.0 4.0 42 42
r 1.528 2 3 cbr 1500 ------- 0 0.0 4.0 40 40
+ 1.528 3 4 cbr 1500 ------- 0 0.0 4.0 40 40
- 1.528 3 4 cbr 1500 ------- 0 0.0 4.0 40 40
+ 1.528 0 2 cbr 1500 ------- 0 0.0 4.0 44 44
- 1.528 0 2 cbr 1500 ------- 0 0.0 4.0 44 44
r 1.532 3 4 cbr 1500 ------- 0 0.0 4.0 39 39
r 1.532 0 2 cbr 1500 ------- 0 0.0 4.0 43 43
+ 1.532 2 3 cbr 1500 ------- 0 0.0 4.0 43 43
- 1.532 2 3 cbr 1500 ------- 0 0.0 4.0 43 43
r 1.54 2 3 cbr 1500 ------- 0 0.0 4.0 41 41
+ 1.54 3 4 cbr 1500 ------- 0 0.0 4.0 41 41
- 1.54 3 4 cbr 1500 ------- 0 0.0 4.0 41 41
+ 1.54 0 2 cbr 1500 ------- 0 0.0 4.0 45 45
- 1.54 0 2 cbr 1500 ------- 0 0.0 4.0 45 45
r 1.544 3 4 cbr 1500 ------- 0 0.0 4.0 40 40
r 1.544 0 2 cbr 1500 ------- 0 0.0 4.0 44 44
+ 1.544 2 3 cbr 1500 ------- 0 0.0 4.0 44 44
- 1.544 2 3 cbr 1500 ------- 0 0.0 4.0 44 44
r 1.552 2 3 cbr 1500 ------- 0 0.0 4.0 42 42
+ 1.552 3 4 cbr 1500 ------- 0 0.0 4.0 42 42
- 1.552 3 4 cbr 1500 ------- 0 0.0 4.0 42 42
+ 1.552 0 2 cbr 1500 ------- 0 0.0 4.0 46 46
- 1.552 0 2 cbr 1500 ------- 0 0.0 4.0 46 46
r 1.556 3 4 cbr 1500 ------- 0 0.0 4.0 41 41
r 1.556 0 2 cbr 1500 ------- 0 0.0 4.0 45 45
+ 1.556 2 3 cbr 1500 ------- 0 0.0 4.0 45 45
- 1.556 2 3 cbr 1500 ------- 0 0.0 4.0 45 45
r 1.564 2 3 cbr 1500 ------- 0 0.0 4.0 43 43
+ 1.564 3 4 cbr 1500 ------- 0 0.0 4.0 43 43
- 1.564 3 4 cbr 1500 ------- 0 0.0 4.0 43 43
+ 1.564 0 2 cbr 1500 ------- 0 0.0 4.0 47 47
- 1.564 0 2 cbr 1500 ------- 0 0.0 4.0 47 47
r 1.568 3 4 cbr 1500 ------- 0 0.0 4.0 42 42
r 1.568 0 2 cbr 1500 ------- 0 0.0 4.0 46 46
+ 1.568 2 3 cbr 1500 ------- 0 0.0 4.0 46 46
- 1.568 2 3 cbr 1500 ------- 0 0.0 4.0 46 46
r 1.576 2 3 cbr 1500 ------- 0 0.0 4.0 44 44
+ 1.576 3 4 cbr 1500 ------- 0 0.0 4.0 44 44
- 1.576 3 4 cbr 1500 ------- 0 0.0 4.0 44 44
+ 1.576 0 2 cbr 1500 ------- 0 0.0 4.0 48 48
- 1.576 0 2 cbr 1500 ------- 0 0.0 4.0 48 48
r 1.58 3 4 cbr 1500 ------- 0 0.0 4.0 43 43
r 1.58 0 2 cbr 1500 ------- 0 0.0 4.0 47 47
+ 1.58 2 3 cbr 1500 ------- 0 0.0 4.0 47 47
- 1.58 2 3 cbr 1500 ------- 0 0.0 4.0 47 47
r 1.588 2 3 cbr 1500 ------- 0 0.0 4.0 45 45
+ 1.588 3 4 cbr 1500 ------- 0 0.0 4.0 45 45
- 1.588 3 4 cbr 1500 ------- 0 0.0 4.0 45 45
+ 1.588 0 2 cbr 1500 ------- 0 0.0 4.0 49 49
- 1.588 0 2 cbr 1500 ------- 0 0.0 4.0 49 49
r 1.592 3 4 cbr 1500 ------- 0 0.0 4.0 44 44
r 1.592 0 2 cbr 1500 ------- 0 0.0 4.0 48 48
+ 1.592 2 3 cbr 1500 ------- 0 0.0 4.0 48 48
- 1.592 2 3 cbr 1500 ------- 0 0.0 4.0 48 48
r 1.6 2 3 cbr 1500 ------- 0 0.0 4.0 46 46
+ 1.6 3 4 cbr 1500 ------- 0 0.0 4.0 46 46
- 1.6 3 4 cbr 1500 ------- 0 0.0 4.0 46 46
+ 1.6 0 2 cbr 1500 ------- 0 0.0 4.0 50 50
- 1.6 0 2 cbr 1500 ------- 0 0.0 4.0 50 50
r 1.604 3 4 cbr 1500 ------- 0 0.0 4.0 45 45
r 1.604 0 2 cbr 1500 ------- 0 0.0 4.0 49 49
+ 1.604 2 3 cbr 1500 ------- 0 0.0 4.0 49 49
- 1.604 2 3 cbr 1500 ------- 0 0.0 4.0 49 49
r 1.612 2 3 cbr 1500 ------- 0 0.0 4.0 47 47
+ 1.612 3 4 cbr 1500 ------- 0 0.0 4.0 47 47
- 1.612 3 4 cbr 1500 ------- 0 0.0 4.0 47 47
+ 1.612 0 2 cbr 1500 ------- 0 0.0 4.0 51 51
- 1.612 0 2 cbr 1500 ------- 0 0.0 4.0 51 51
r 1.616 3 4 cbr 1500 ------- 0 0.0 4.0 46 46
r 1.616 0 2 cbr 1500 ------- 0 0.0 4.0 50 50
+ 1.616 2 3 cbr 1500 ------- 0 0.0 4.0 50 50
- 1.616 2 3 cbr 1500 ------- 0 0.0 4.0 50 50
r 1.624 2 3 cbr 1500 ------- 0 0.0 4.0 48 48
+ 1.624 3 4 cbr 1500 ------- 0 0.0 4.0 48 48
- 1.624 3 4 cbr 1500 ------- 0 0.0 4.0 48 48
+ 1.624 0 2 cbr 1500 ------- 0 0.0 4.0 52 52
- 1.624 0 2 cbr 1500 ------- 0 0.0 4.0 52 52
r 1.628 3 4 cbr 1500 ------- 0 0.0 4.0 47 47
r 1.628 0 2 cbr 1500 ------- 0 0.0 4.0 51 51
+ 1.628 2 3 cbr 1500 ------- 0 0.0 4.0 51 51
- 1.628 2 3 cbr 1500 ------- 0 0.0 4.0 51 51
r 1.636 2 3 cbr 1500 ------- 0 0.0 4.0 49 49
+ 1.636 3 4 cbr 1500 ------- 0 0.0 4.0 49 49
- 1.636 3 4 cbr 1500 ------- 0 0.0 4.0 49 49
+ 1.636 0 2 cbr 1500 ------- 0 0.0 4.0 53 53
- 1.636 0 2 cbr 1500 ------- 0 0.0 4.0 53 53
r 1.64 3 4 cbr 1500 ------- 0 0.0 4.0 48 48
r 1.64 0 2 cbr 1500 ------- 0 0.0 4.0 52 52
+ 1.64 2 3 cbr 1500 ------- 0 0.0 4.0 52 52
- 1.64 2 3 cbr 1500 ------- 0 0.0 4.0 52 52
r 1.648 2 3 cbr 1500 ------- 0 0.0 4.0 50 50
+ 1.648 3 4 cbr 1500 ------- 0 0.0 4.0 50 50
- 1.648 3 4 cbr 1500 ------- 0 0.0 4.0 50 50
+ 1.648 0 2 cbr 1500 ------- 0 0.0 4.0 54 54
- 1.648 0 2 cbr 1500 ------- 0 0.0 4.0 54 54
r 1.652 3 4 cbr 1500 ------- 0 0.0 4.0 49 49
r 1.652 0 2 cbr 1500 ------- 0 0.0 4.0 53 53
+ 1.652 2 3 cbr 1500 ------- 0 0.0 4.0 53 53
- 1.652 2 3 cbr 1500 ------- 0 0.0 4.0 53 53
r 1.66 2 3 cbr 1500 ------- 0 0.0 4.0 51 51
+ 1.66 3 4 cbr 1500 ------- 0 0.0 4.0 51 51
- 1.66 3 4 cbr 1500 ------- 0 0.0 4.0 51 51
+ 1.66 0 2 cbr 1500 ------- 0 0.0 4.0 55 55
- 1.66 0 2 cbr 1500 ------- 0 0.0 4.0 55 55
r 1.664 3 4 cbr 1500 ------- 0 0.0 4.0 50 50
r 1.664 0 2 cbr 1500 ------- 0 0.0 4.0 54 54
+ 1.664 2 3 cbr 1500 ------- 0 0.0 4.0 54 54
- 1.664 2 3 cbr 1500 ------- 0 0.0 4.0 54 54
r 1.672 2 3 cbr 1500 ------- 0 0.0 4.0 52 52
+ 1.672 3 4 cbr 1500 ------- 0 0.0 4.0 52 52
- 1.672 3 4 cbr 1500 ------- 0 0.0 4.0 52 52
+ 1.672 0 2 cbr 1500 ------- 0 0.0 4.0 56 56
- 1.672 0 2 cbr 1500 ------- 0 0.0 4.0 56 56
r 1.676 3 4 cbr 1500 ------- 0 0.0 4.0 51 51
r 1.676 0 2 cbr 1500 ------- 0 0.0 4.0 55 55
+ 1.676 2 3 cbr 1500 ------- 0 0.0 4.0 55 55
- 1.676 2 3 cbr 1500 ------- 0 0.0 4.0 55 55
r 1.684 2 3 cbr 1500 ------- 0 0.0 4.0 53 53
+ 1.684 3 4 cbr 1500 ------- 0 0.0 4.0 53 53
- 1.684 3 4 cbr 1500 ------- 0 0.0 4.0 53 53
+ 1.684 0 2 cbr 1500 ------- 0 0.0 4.0 57 57
- 1.684 0 2 cbr 1500 ------- 0 0.0 4.0 57 57
r 1.688 3 4 cbr 1500 ------- 0 0.0 4.0 52 52
r 1.688 0 2 cbr 1500 ------- 0 0.0 4.0 56 56
+ 1.688 2 3 cbr 1500 ------- 0 0.0 4.0 56 56
- 1.688 2 3 cbr 1500 ------- 0 0.0 4.0 56 56
r 1.696 2 3 cbr 1500 ------- 0 0.0 4.0 54 54
+ 1.696 3 4 cbr 1500 ------- 0 0.0 4.0 54 54
- 1.696 3 4 cbr 1500 ------- 0 0.0 4.0 54 54
+ 1.696 0 2 cbr 1500 ------- 0 0.0 4.0 58 58
- 1.696 0 2 cbr 1500 ------- 0 0.0 4.0 58 58
r 1.7 3 4 cbr 1500 ------- 0 0.0 4.0 53 53
r 1.7 0 2 cbr 1500 ------- 0 0.0 4.0 57 57
+ 1.7 2 3 cbr 1500 ------- 0 0.0 4.0 57 57
- 1.7 2 3 cbr 1500 ------- 0 0.0 4.0 57 57
r 1.708 2 3 cbr 1500 ------- 0 0.0 4.0 55 55
+ 1.708 3 4 cbr 1500 ------- 0 0.0 4.0 55 55
- 1.708 3 4 cbr 1500 ------- 0 0.0 4.0 55 55
+ 1.708 0 2 cbr 1500 ------- 0 0.0 4.0 59 59
- 1.708 0 2 cbr 1500 ------- 0 0.0 4.0 59 59
r 1.712 3 4 cbr 1500 ------- 0 0.0 4.0 54 54
r 1.712 0 2 cbr 1500 ------- 0 0.0 4.0 58 58
+ 1.712 2 3 cbr 1500 ------- 0 0.0 4.0 58 58
- 1.712 2 3 cbr 1500 ------- 0 0.0 4.0 58 58
r 1.72 2 3 cbr 1500 ------- 0 0.0 4.0 56 56
+ 1.72 3 4 cbr 1500 ------- 0 0.0 4.0 56 56
- 1.72 3 4 cbr 1500 ------- 0 0.0 4.0 56 56
+ 1.72 0 2 cbr 1500 ------- 0 0.0 4.0 60 60
- 1.72 0 2 cbr 1500 ------- 0 0.0 4.0 60 60
r 1.724 3 4 cbr 1500 ------- 0 0.0 4.0 55 55
r 1.724 0 2 cbr 1500 ------- 0 0.0 4.0 59 59
+ 1.724 2 3 cbr 1500 ------- 0 0.0 4.0 59 59
- 1.724 2 3 cbr 1500 ------- 0 0.0 4.0 59 59
r 1.732 2 3 cbr 1500 ------- 0 0.0 4.0 57 57
+ 1.732 3 4 cbr 1500 ------- 0 0.0 4.0 57 57
- 1.732 3 4 cbr 1500 ------- 0 0.0 4.0 57 57
+ 1.732 0 2 cbr 1500 ------- 0 0.0 4.0 61 61
- 1.732 0 2 cbr 1500 ------- 0 0.0 4.0 61 61
r 1.736 3 4 cbr 1500 ------- 0 0.0 4.0 56 56
r 1.736 0 2 cbr 1500 ------- 0 0.0 4.0 60 60
+ 1.736 2 3 cbr 1500 ------- 0 0.0 4.0 60 60
- 1.736 2 3 cbr 1500 ------- 0 0.0 4.0 60 60
r 1.744 2 3 cbr 1500 ------- 0 0.0 4.0 58 58
+ 1.744 3 4 cbr 1500 ------- 0 0.0 4.0 58 58
- 1.744 3 4 cbr 1500 ------- 0 0.0 4.0 58 58
+ 1.744 0 2 cbr 1500 ------- 0 0.0 4.0 62 62
- 1.744 0 2 cbr 1500 ------- 0 0.0 4.0 62 62
r 1.748 3 4 cbr 1500 ------- 0 0.0 4.0 57 57
r 1.748 0 2 cbr 1500 ------- 0 0.0 4.0 61 61
+ 1.748 2 3 cbr 1500 ------- 0 0.0 4.0 61 61
- 1.748 2 3 cbr 1500 ------- 0 0.0 4.0 61 61
r 1.756 2 3 cbr 1500 ------- 0 0.0 4.0 59 59
+ 1.756 3 4 cbr 1500 ------- 0 0.0 4.0 59 59
- 1.756 3 4 cbr 1500 ------- 0 0.0 4.0 59 59
+ 1.756 0 2 cbr 1500 ------- 0 0.0 4.0 63 63
- 1.756 0 2 cbr 1500 ------- 0 0.0 4.0 63 63
r 1.76 3 4 cbr 1500 ------- 0 0.0 4.0 58 58
r 1.76 0 2 cbr 1500 ------- 0 0.0 4.0 62 62
+ 1.76 2 3 cbr 1500 ------- 0 0.0 4.0 62 62
- 1.76 2 3 cbr 1500 ------- 0 0.0 4.0 62 62
r 1.768 2 3 cbr 1500 ------- 0 0.0 4.0 60 60
+ 1.768 3 4 cbr 1500 ------- 0 0.0 4.0 60 60
- 1.768 3 4 cbr 1500 ------- 0 0.0 4.0 60 60
+ 1.768 0 2 cbr 1500 ------- 0 0.0 4.0 64 64
- 1.768 0 2 cbr 1500 ------- 0 0.0 4.0 64 64
r 1.772 3 4 cbr 1500 ------- 0 0.0 4.0 59 59
r 1.772 0 2 cbr 1500 ------- 0 0.0 4.0 63 63
+ 1.772 2 3 cbr 1500 ------- 0 0.0 4.0 63 63
- 1.772 2 3 cbr 1500 ------- 0 0.0 4.0 63 63
r 1.78 2 3 cbr 1500 ------- 0 0.0 4.0 61 61
+ 1.78 3 4 cbr 1500 ------- 0 0.0 4.0 61 61
- 1.78 3 4 cbr 1500 ------- 0 0.0 4.0 61 61
+ 1.78 0 2 cbr 1500 ------- 0 0.0 4.0 65 65
- 1.78 0 2 cbr 1500 ------- 0 0.0 4.0 65 65
r 1.784 3 4 cbr 1500 ------- 0 0.0 4.0 60 60
r 1.784 0 2 cbr 1500 ------- 0 0.0 4.0 64 64
+ 1.784 2 3 cbr 1500 ------- 0 0.0 4.0 64 64
- 1.784 2 3 cbr 1500 ------- 0 0.0 4.0 64 64
r 1.792 2 3 cbr 1500 ------- 0 0.0 4.0 62 62
+ 1.792 3 4 cbr 1500 ------- 0 0.0 4.0 62 62
- 1.792 3 4 cbr 1500 ------- 0 0.0 4.0 62 62
+ 1.792 0 2 cbr 1500 ------- 0 0.0 4.0 66 66
- 1.792 0 2 cbr 1500 ------- 0 0.0 4.0 66 66
r 1.796 3 4 cbr 1500 ------- 0 0.0 4.0 61 61
r 1.796 0 2 cbr 1500 ------- 0 0.0 4.0 65 65
+ 1.796 2 3 cbr 1500 ------- 0 0.0 4.0 65 65
- 1.796 2 3 cbr 1500 ------- 0 0.0 4.0 65 65
r 1.804 2 3 cbr 1500 ------- 0 0.0 4.0 63 63
+ 1.804 3 4 cbr 1500 ------- 0 0.0 4.0 63 63
- 1.804 3 4 cbr 1500 ------- 0 0.0 4.0 63 63
+ 1.804 0 2 cbr 1500 ------- 0 0.0 4.0 67 67
- 1.804 0 2 cbr 1500 ------- 0 0.0 4.0 67 67
r 1.808 3 4 cbr 1500 ------- 0 0.0 4.0 62 62
r 1.808 0 2 cbr 1500 ------- 0 0.0 4.0 66 66
+ 1.808 2 3 cbr 1500 ------- 0 0.0 4.0 66 66
- 1.808 2 3 cbr 1500 ------- 0 0.0 4.0 66 66
r 1.816 2 3 cbr 1500 ------- 0 0.0 4.0 64 64
+ 1.816 3 4 cbr 1500 ------- 0 0.0 4.0 64 64
- 1.816 3 4 cbr 1500 ------- 0 0.0 4.0 64 64
+ 1.816 0 2 cbr 1500 ------- 0 0.0 4.0 68 68
- 1.816 0 2 cbr 1500 ------- 0 0.0 4.0 68 68
r 1.82 3 4 cbr 1500 ------- 0 0.0 4.0 63 63
r 1.82 0 2 cbr 1500 ------- 0 0.0 4.0 67 67
+ 1.82 2 3 cbr 1500 ------- 0 0.0 4.0 67 67
- 1.82 2 3 cbr 1500 ------- 0 0.0 4.0 67 67
r 1.828 2 3 cbr 1500 ------- 0 0.0 4.0 65 65
+ 1.828 3 4 cbr 1500 ------- 0 0.0 4.0 65 65
- 1.828 3 4 cbr 1500 ------- 0 0.0 4.0 65 65
+ 1.828 0 2 cbr 1500 ------- 0 0.0 4.0 69 69
- 1.828 0 2 cbr 1500 ------- 0 0.0 4.0 69 69
r 1.832 3 4 cbr 1500 ------- 0 0.0 4.0 64 64
r 1.832 0 2 cbr 1500 ------- 0 0.0 4.0 68 68
+ 1.832 2 3 cbr 1500 ------- 0 0.0 4.0 68 68
- 1.832 2 3 cbr 1500 ------- 0 0.0 4.0 68 68
r 1.84 2 3 cbr 1500 ------- 0 0.0 4.0 66 66
+ 1.84 3 4 cbr 1500 ------- 0 0.0 4.0 66 66
- 1.84 3 4 cbr 1500 ------- 0 0.0 4.0 66 66
+ 1.84 0 2 cbr 1500 ------- 0 0.0 4.0 70 70
- 1.84 0 2 cbr 1500 ------- 0 0.0 4.0 70 70
r 1.844 3 4 cbr 1500 ------- 0 0.0 4.0 65 65
r 1.844 0 2 cbr 1500 ------- 0 0.0 4.0 69 69
+ 1.844 2 3 cbr 1500 ------- 0 0.0 4.0 69 69
- 1.844 2 3 cbr 1500 ------- 0 0.0 4.0 69 69
r 1.852 2 3 cbr 1500 ------- 0 0.0 4.0 67 67
+ 1.852 3 4 cbr 1500 ------- 0 0.0 4.0 67 67
- 1.852 3 4 cbr 1500 ------- 0 0.0 4.0 67 67
+ 1.852 0 2 cbr 1500 ------- 0 0.0 4.0 71 71
- 1.852 0 2 cbr 1500 ------- 0 0.0 4.0 71 71
r 1.856 3 4 cbr 1500 ------- 0 0.0 4.0 66 66
r 1.856 0 2 cbr 1500 ------- 0 0.0 4.0 70 70
+ 1.856 2 3 cbr 1500 ------- 0 0.0 4.0 70 70
- 1.856 2 3 cbr 1500 ------- 0 0.0 4.0 70 70
r 1.864 2 3 cbr 1500 ------- 0 0.0 4.0 68 68
+ 1.864 3 4 cbr 1500 ------- 0 0.0 4.0 68 68
- 1.864 3 4 cbr 1500 ------- 0 0.0 4.0 68 68
+ 1.864 0 2 cbr 1500 ------- 0 0.0 4.0 72 72
- 1.864 0 2 cbr 1500 ------- 0 0.0 4.0 72 72
r 1.868 3 4 cbr 1500 ------- 0 0.0 4.0 67 67
r 1.868 0 2 cbr 1500 ------- 0 0.0 4.0 71 71
+ 1.868 2 3 cbr 1500 ------- 0 0.0 4.0 71 71
- 1.868 2 3 cbr 1500 ------- 0 0.0 4.0 71 71
r 1.876 2 3 cbr 1500 ------- 0 0.0 4.0 69 69
+ 1.876 3 4 cbr 1500 ------- 0 0.0 4.0 69 69
- 1.876 3 4 cbr 1500 ------- 0 0.0 4.0 69 69
+ 1.876 0 2 cbr 1500 ------- 0 0.0 4.0 73 73
- 1.876 0 2 cbr 1500 ------- 0 0.0 4.0 73 73
r 1.88 3 4 cbr 1500 ------- 0 0.0 4.0 68 68
r 1.88 0 2 cbr 1500 ------- 0 0.0 4.0 72 72
+ 1.88 2 3 cbr 1500 ------- 0 0.0 4.0 72 72
- 1.88 2 3 cbr 1500 ------- 0 0.0 4.0 72 72
r 1.888 2 3 cbr 1500 ------- 0 0.0 4.0 70 70
+ 1.888 3 4 cbr 1500 ------- 0 0.0 4.0 70 70
- 1.888 3 4 cbr 1500 ------- 0 0.0 4.0 70 70
+ 1.888 0 2 cbr 1500 ------- 0 0.0 4.0 74 74
- 1.888 0 2 cbr 1500 ------- 0 0.0 4.0 74 74
r 1.892 3 4 cbr 1500 ------- 0 0.0 4.0 69 69
r 1.892 0 2 cbr 1500 ------- 0 0.0 4.0 73 73
+ 1.892 2 3 cbr 1500 ------- 0 0.0 4.0 73 73
- 1.892 2 3 cbr 1500 ------- 0 0.0 4.0 73 73
r 1.9 2 3 cbr 1500 ------- 0 0.0 4.0 71 71
+ 1.9 3 4 cbr 1500 ------- 0 0.0 4.0 71 71
- 1.9 3 4 cbr 1500 ------- 0 0.0 4.0 71 71
+ 1.9 0 2 cbr 1500 ------- 0 0.0 4.0 75 75
- 1.9 0 2 cbr 1500 ------- 0 0.0 4.0 75 75
r 1.904 3 4 cbr 1500 ------- 0 0.0 4.0 70 70
r 1.904 0 2 cbr 1500 ------- 0 0.0 4.0 74 74
+ 1.904 2 3 cbr 1500 ------- 0 0.0 4.0 74 74
- 1.904 2 3 cbr 1500 ------- 0 0.0 4.0 74 74
r 1.912 2 3 cbr 1500 ------- 0 0.0 4.0 72 72
+ 1.912 3 4 cbr 1500 ------- 0 0.0 4.0 72 72
- 1.912 3 4 cbr 1500 ------- 0 0.0 4.0 72 72
+ 1.912 0 2 cbr 1500 ------- 0 0.0 4.0 76 76
- 1.912 0 2 cbr 1500 ------- 0 0.0 4.0 76 76
r 1.916 3 4 cbr 1500 ------- 0 0.0 4.0 71 71
r 1.916 0 2 cbr 1500 ------- 0 0.0 4.0 75 75
+ 1.916 2 3 cbr 1500 ------- 0 0.0 4.0 75 75
- 1.916 2 3 cbr 1500 ------- 0 0.0 4.0 75 75
r 1.924 2 3 cbr 1500 ------- 0 0.0 4.0 73 73