V -t * -v 1.0a5 -a 0
A -t * -n 1 -p 0 -o 0x7fffffff -c 30 -a 1
A -t * -h 1 -m 1073741823 -s 0
n -t * -a 4 -s 4 -S UP -v circle -c black -i black
n -t * -a 0 -s 0 -S UP -v circle -c black -i black
n -t * -a 5 -s 5 -S UP -v circle -c black -i black
n -t * -a 1 -s 1 -S UP -v circle -c black -i black
n -t * -a 2 -s 2 -S UP -v circle -c black -i black
n -t * -a 3 -s 3 -S UP -v circle -c black -i black
l -t * -s 0 -d 2 -S UP -r 2000000 -D 0.01 -c black -o right-down
l -t * -s 1 -d 2 -S UP -r 2000000 -D 0.01 -c black -o right-up
l -t * -s 3 -d 4 -S UP -r 2000000 -D 0.01 -c black -o right-up
l -t * -s 3 -d 5 -S UP -r 2000000 -D 0.01 -c black -o right-down
l -t * -s 3 -d 2 -S UP -r 1000000 -D 0.02 -c black -o left
+ -t 1 -s 0 -d 2 -p cbr -e 1500 -c 0 -i 0 -a 0 -x {0.0 4.0 0 ------- null}
- -t 1 -s 0 -d 2 -p cbr -e 1500 -c 0 -i 0 -a 0 -x {0.0 4.0 0 ------- null}
h -t 1 -s 0 -d 2 -p cbr -e 1500 -c 0 -i 0 -a 0 -x {0.0 4.0 -1 ------- null}
+ -t 1.012 -s 0 -d 2 -p cbr -e 1500 -c 0 -i 1 -a 0 -x {0.0 4.0 1 ------- null}
- -t 1.012 -s 0 -d 2 -p cbr -e 1500 -c 0 -i 1 -a 0 -x {0.0 4.0 1 ------- null}
h -t 1.012 -s 0 -d 2 -p cbr -e 1500 -c 0 -i 1 -a 0 -x {0.0 4.0 -1 ------- null}
r -t 1.016 -s 0 -d 2 -p cbr -e 1500 -c 0 -i 0 -a 0 -x {0.0 4.0 0 ------- null}
+ -t 1.016 -s 2 -d 3 -p cbr -e 1500 -c 0 -i 0 -a 0 -x {0.0 4.0 0 ------- null}
- -t 1.016 -s 2 -d 3 -p cbr -e 1500 -c 0 -i 0 -a 0 -x {0.0 4.0 0 ------- null}
h -t 1.016 -s 2 -d 3 -p cbr -e 1500 -c 0 -i 0 -a 0 -x {0.0 4.0 -1 ------- null}
+ -t 1.024 -s 0 -d 2 -p cbr -e 1500 -c 0 -i 2 -a 0 -x {0.0 4.0 2 ------- null}
- -t 1.024 -s 0 -d 2 -p cbr -e 1500 -c 0 -i 2 -a 0 -x {0.0 4.0 2 ------- null}
h -t 1.024 -s 0 -d 2 -p cbr -e 1500 -c 0 -i 2 -a 0 -x {0.0 4.0 -1 ------- null}
r -t 1.028 -s 0 -d 2 -p cbr -e 1500 -c 0 -i 1 -a 0 -x {0.0 4.0 1 ------- null}
+ -t 1.028 -s 2 -d 3 -p cbr -e 1500 -c 0 -i 1 -a 0 -x {0.0 4.0 1 ------- null}
- -t 1.028 -s 2 -d 3 -p cbr -e 1500 -c 0 -i 1 -a 0 -x {0.0 4.0 1 ------- null}
h -t 1.028 -s 2 -d 3 -p cbr -e 1500 -c 0 -i 1 -a 0 -x {0.0 4.0 -1 ------- null}
+ -t 1.036 -s 0 -d 2 -p cbr -e 1500 -c 0 -i 3 -a 0 -x {0.0 4.0 3 ------- null}
- -t 1.036 -s 0 -d 2 -p cbr -e 1500 -c 0 -i 3 -a 0 -x {0.0 4.0 3 ------- null}
h -t 1.036 -s 0 -d 2 -p cbr -e 1500 -c 0 -i 3 -a 0 -x {0.0 4.0 -1 ------- null}
r -t 1.04 -s 0 -d 2 -p cbr -e 1500 -c 0 -i 2 -a 0 -x {0.0 4.0 2 ------- null}
+ -t 1.04 -s 2 -d 3 -p cbr -e 1500 -c 0 -i 2 -a 0 -x {0.0 4.0 2 ------- null}
- -t 1.04 -s 2 -d 3 -p cbr -e 1500 -c 0 -i 2 -a 0 -x {0.0 4.0 2 ------- null}
h -t 1.04 -s 2 -d 3 -p cbr -e 1500 -c 0 -i 2 -a 0 -x {0.0 4.0 -1 ------- null}
r -t 1.048 -s 2 -d 3 -p cbr -e 1500 -c 0 -i 0 -a 0 -x {0.0 4.0 0 ------- null}
+ -t 1.048 -s 3 -d 4 -p cbr -e 1500 -c 0 -i 0 -a 0 -x {0.0 4.0 0 ------- null}
- -t 1.048 -s 3 -d 4 -p cbr -e 1500 -c 0 -i 0 -a 0 -x {0.0 4.0 0 ------- null}
h -t 1.048 -s 3 -d 4 -p cbr -e 1500 -c 0 -i 0 -a 0 -x {0.0 4.0 -1 ------- null}
+ -t 1.048 -s 0 -d 2 -p cbr -e 1500 -c 0 -i 4 -a 0 -x {0.0 4.0 4 ------- null}
- -t 1.048 -s 0 -d 2 -p cbr -e 1500 -c 0 -i 4 -a 0 -x {0.0 4.0 4 ------- null}
h -t 1.048 -s 0 -d 2 -p cbr -e 1500 -c 0 -i 4 -a 0 -x {0.0 4.0 -1 ------- null}
r -t 1.052 -s 0 -d 2 -p cbr -e 1500 -c 0 -i 3 -a 0 -x {0.0 4.0 3 ------- null}
+ -t 1.052 -s 2 -d 3 -p cbr -e 1500 -c 0 -i 3 -a 0 -x {0.0 4.0 3 ------- null}
- -t 1.052 -s 2 -d 3 -p cbr -e 1500 -c 0 -i 3 -a 0 -x {0.0 4.0 3 ------- null}
h -t 1.052 -s 2 -d 3 -p cbr -e 1500 -c 0 -i 3 -a 0 -x {0.0 4.0 -1 ------- null}
r -t 1.06 -s 2 -d 3 -p cbr -e 1500 -c 0 -i 1 -a 0 -x {0.0 4.0 1 ------- null}
+ -t 1.06 -s 3 -d 4 -p cbr -e 1500 -c 0 -i 1 -a 0 -x {0.0 4.0 1 ------- null}
- -t 1.06 -s 3 -d 4 -p cbr -e 1500 -c 0 -i 1 -a 0 -x {0.0 4.0 1 ------- null}
h -t 1.06 -s 3 -d 4 -p cbr -e 1500 -c 0 -i 1 -a 0 -x {0.0 4.0 -1 ------- null}
+ -t 1.06 -s 0 -d 2 -p cbr -e 1500 -c 0 -i 5 -a 0 -x {0.0 4.0 5 ------- null}
- -t 1.06 -s 0 -d 2 -p cbr -e 1500 -c 0 -i 5 -a 0 -x {0.0 4.0 5 ------- null}
h -t 1.06 -s 0 -d 2 -p cbr -e 1500 -c 0 -i 5 -a 0 -x {0.0 4.0 -1 ------- null}
r -t 1.064 -s 3 -d 4 -p cbr -e 1500 -c 0 -i 0 -a 0 -x {0.0 4.0 0 ------- null}
r -t 1.064 -s 0 -d 2 -p cbr -e 1500 -c 0 -i 4 -a 0 -x {0.0 4.0 4 ------- null}
+ -t 1.064 -s 2 -d 3 -p cbr -e 1500 -c 0 -i 4 -a 0 -x {0.0 4.0 4 ------- null}
- -t 1.064 -s 2 -d 3 -p cbr -e 1500 -c 0 -i 4 -a 0 -x {0.0 4.0 4 ------- null}
h -t 1.064 -s 2 -d 3 -p cbr -e 1500 -c 0 -i 4 -a 0 -x {0.0 4.0 -1 ------- null}
r -t 1.072 -s 2 -d 3 -p cbr -e 1500 -c 0 -i 2 -a 0 -x {0.0 4.0 2 ------- null}
+ -t 1.072 -s 3 -d 4 -p cbr -e 1500 -c 0 -i 2 -a 0 -x {0.0 4.0 2 ------- null}
- -t 1.072 -s 3 -d 4 -p cbr -e 1500 -c 0 -i 2 -a 0 -x {0.0 4.0 2 ------- null}
h -t 1.072 -s 3 -d 4 -p cbr -e 1500 -c 0 -i 2 -a 0 -x {0.0 4.0 -1 ------- null}
+ -t 1.072 -s 0 -d 2 -p cbr -e 1500 -c 0 -i 6 -a 0 -x {0.0 4.0 6 ------- null}
- -t 1.072 -s 0 -d 2 -p cbr -e 1500 -c 0 -i 6 -a 0 -x {0.0 4.0 6 ------- null}
h -t 1.072 -s 0 -d 2 -p cbr -e 1500 -c 0 -i 6 -a 0 -x {0.0 4.0 -1 ------- null}
r -t 1.076 -s 3 -d 4 -p cbr -e 1500 -c 0 -i 1 -a 0 -x {0.0 4.0 1 ------- null}
r -t 1.076 -s 0 -d 2 -p cbr -e 1500 -c 0 -i 5 -a 0 -x {0.0 4.0 5 ------- null}
+ -t 1.076 -s 2 -d 3 -p cbr -e 1500 -c 0 -i 5 -a 0 -x {0.0 4.0 5 ------- null}
- -t 1.076 -s 2 -d 3 -p cbr -e 1500 -c 0 -i 5 -a 0 -x {0.0 4.0 5 ------- null}
h -t 1.076 -s 2 -d 3 -p cbr -e 1500 -c 0 -i 5 -a 0 -x {0.0 4.0 -1 ------- null}
r -t 1.084 -s 2 -d 3 -p cbr -e 1500 -c 0 -i 3 -a 0 -x {0.0 4.0 3 ------- null}
+ -t 1.084 -s 3 -d 4 -p cbr -e 1500 -c 0 -i 3 -a 0 -x {0.0 4.0 3 ------- null}
- -t 1.084 -s 3 -d 4 -p cbr -e 1500 -c 0 -i 3 -a 0 -x {0.0 4.0 3 ------- null}
h -t 1.084 -s 3 -d 4 -p cbr -e 1500 -c 0 -i 3 -a 0 -x {0.0 4.0 -1 ------- null}
+ -t 1.084 -s 0 -d 2 -p cbr -e 1500 -c 0 -i 7 -a 0 -x {0.0 4.0 7 ------- null}
- -t 1.084 -s 0 -d 2 -p cbr -e 1500 -c 0 -i 7 -a 0 -x {0.0 4.0 7 ------- null}
h -t 1.084 -s 0 -d 2 -p cbr -e 1500 -c 0 -i 7 -a 0 -x {0.0 4.0 -1 ------- null}
r -t 1.088 -s 3 -d 4 -p cbr -e 1500 -c 0 -i 2 -a 0 -x {0.0 4.0 2 ------- null}
r -t 1.088 -s 0 -d 2 -p cbr -e 1500 -c 0 -i 6 -a 0 -x {0.0 4.0 6 ------- null}
+ -t 1.088 -s 2 -d 3 -p cbr -e 1500 -c 0 -i 6 -a 0 -x {0.0 4.0 6 ------- null}
- -t 1.088 -s 2 -d 3 -p cbr -e 1500 -c 0 -i 6 -a 0 -x {0.0 4.0 6 ------- null}
h -t 1.088 -s 2 -d 3 -p cbr -e 1500 -c 0 -i 6 -a 0 -x {0.0 4.0 -1 ------- null}
r -t 1.096 -s 2 -d 3 -p cbr -e 1500 -c 0 -i 4 -a 0 -x {0.0 4.0 4 ------- null}
+ -t 1.096 -s 3 -d 4 -p cbr -e 1500 -c 0 -i 4 -a 0 -x {0.0 4.0 4 ------- null}
- -t 1.096 -s 3 -d 4 -p cbr -e 1500 -c 0 -i 4 -a 0 -x {0.0 4.0 4 ------- null}
h -t 1.096 -s 3 -d 4 -p cbr -e 1500 -c 0 -i 4 -a 0 -x {0.0 4.0 -1 ------- null}
+ -t 1.096 -s 0 -d 2 -p cbr -e 1500 -c 0 -i 8 -a 0 -x {0.0 4.0 8 ------- null}
- -t 1.096 -s 0 -d 2 -p cbr -e 1500 -c 0 -i 8 -a 0 -x {0.0 4.0 8 ------- null}
h -t 1.096 -s 0 -d 2 -p cbr -e 1500 -c 0 -i 8 -a 0 -x {0.0 4.0 -1 ------- null}
r -t 1.1 -s 3 -d 4 -p cbr -e 1500 -c 0 -i 3 -a 0 -x {0.0 4.0 3 ------- null}
r -t 1.1 -s 0 -d 2 -p cbr -e 1500 -c 0 -i 7 -a 0 -x {0.0 4.0 7 ------- null}
+ -t 1.1 -s 2 -d 3 -p cbr -e 1500 -c 0 -i 7 -a 0 -x {0.0 4.0 7 ------- null}
- -t 1.1 -s 2 -d 3 -p cbr -e 1500 -c 0 -i 7 -a 0 -x {0.0 4.0 7 ------- null}
h -t 1.1 -s 2 -d 3 -p cbr -e 1500 -c 0 -i 7 -a 0 -x {0.0 4.0 -1 ------- null}
r -t 1.108 -s 2 -d 3 -p cbr -e 1500 -c 0 -i 5 -a 0 -x {0.0 4.0 5 ------- null}
+ -t 1.108 -s 3 -d 4 -p cbr -e 1500 -c 0 -i 5 -a 0 -x {0.0 4.0 5 ------- null}
- -t 1.108 -s 3 -d 4 -p cbr -e 1500 -c 0 -i 5 -a 0 -x {0.0 4.0 5 ------- null}
h -t 1.108 -s 3 -d 4 -p cbr -e 1500 -c 0 -i 5 -a 0 -x {0.0 4.0 -1 ------- null}
+ -t 1.108 -s 0 -d 2 -p cbr -e 1500 -c 0 -i 9 -a 0 -x {0.0 4.0 9 ------- null}
- -t 1.108 -s 0 -d 2 -p cbr -e 1500 -c 0 -i 9 -a 0 -x {0.0 4.0 9 ------- null}
h -t 1.108 -s 0 -d 2 -p cbr -e 1500 -c 0 -i 9 -a 0 -x {0.0 4.0 -1 ------- null}
r -t 1.112 -s 3 -d 4 -p cbr -e 1500 -c 0 -i 4 -a 0 -x {0.0 4.0 4 ------- null}
r -t 1.112 -s 0 -d 2 -p cbr -e 1500 -c 0 -i 8 -a 0 -x {0.0 4.0 8 ------- null}
+ -t 1.112 -s 2 -d 3 -p cbr -e 1500 -c 0 -i 8 -a 0 -x {0.0 4.0 8 ------- null}
- -t 1.112 -s 2 -d 3 -p cbr -e 1500 -c 0 -i 8 -a 0 -x {0.0 4.0 8 ------- null}
h -t 1.112 -s 2 -d 3 -p cbr -e 1500 -c 0 -i 8 -a 0 -x {0.0 4.0 -1 ------- null}
r -t 1.12 -s 2 -d 3 -p cbr -e 1500 -c 0 -i 6 -a 0 -x {0.0 4.0 6 ------- null}
+ -t 1.12 -s 3 -d 4 -p cbr -e 1500 -c 0 -i 6 -a 0 -x {0.0 4.0 6 ------- null}
- -t 1.12 -s 3 -d 4 -p cbr -e 1500 -c 0 -i 6 -a 0 -x {0.0 4.0 6 ------- null}
h -t 1.12 -s 3 -d 4 -p cbr -e 1500 -c 0 -i 6 -a 0 -x {0.0 4.0 -1 ------- null}
+ -t 1.12 -s 0 -d 2 -p cbr -e 1500 -c 0 -i 10 -a 0 -x {0.0 4.0 10 ------- null}
- -t 1.12 -s 0 -d 2 -p cbr -e 1500 -c 0 -i 10 -a 0 -x {0.0 4.0 10 ------- null}
h -t 1.12 -s 0 -d 2 -p cbr -e 1500 -c 0 -i 10 -a 0 -x {0.0 4.0 -1 ------- null}
r -t 1.124 -s 3 -d 4 -p cbr -e 1500 -c 0 -i 5 -a 0 -x {0.0 4.0 5 ------- null}
r -t 1.124 -s 0 -d 2 -p cbr -e 1500 -c 0 -i 9 -a 0 -x {0.0 4.0 9 ------- null}
+ -t 1.124 -s 2 -d 3 -p cbr -e 1500 -c 0 -i 9 -a 0 -x {0.0 4.0 9 ------- null}
- -t 1.124 -s 2 -d 3 -p cbr -e 1500 -c 0 -i 9 -a 0 -x {0.0 4.0 9 ------- null}
h -t 1.124 -s 2 -d 3 -p cbr -e 1500 -c 0 -i 9 -a 0 -x {0.0 4.0 -1 ------- null}
r -t 1.132 -s 2 -d 3 -p cbr -e 1500 -c 0 -i 7 -a 0 -x {0.0 4.0 7 ------- null}
+ -t 1.132 -s 3 -d 4 -p cbr -e 1500 -c 0 -i 7 -a 0 -x {0.0 4.0 7 ------- null}
- -t 1.132 -s 3 -d 4 -p cbr -e 1500 -c 0 -i 7 -a 0 -x {0.0 4.0 7 ------- null}
h -t 1.132 -s 3 -d 4 -p cbr -e 1500 -c 0 -i 7 -a 0 -x {0.0 4.0 -1 ------- null}
+ -t 1.132 -s 0 -d 2 -p cbr -e 1500 -c 0 -i 11 -a 0 -x {0.0 4.0 11 ------- null}
- -t 1.132 -s 0 -d 2 -p cbr -e 1500 -c 0 -i 11 -a 0 -x {0.0 4.0 11 ------- null}
h -t 1.132 -s 0 -d 2 -p cbr -e 1500 -c 0 -i 11 -a 0 -x {0.0 4.0 -1 ------- null}
r -t 1.136 -s 3 -d 4 -p cbr -e 1500 -c 0 -i 6 -a 0 -x {0.0 4.0 6 ------- null}
r -t 1.136 -s 0 -d 2 -p cbr -e 1500 -c 0 -i 10 -a 0 -x {0.0 4.0 10 ------- null}
+ -t 1.136 -s 2 -d 3 -p cbr -e 1500 -c 0 -i 10 -a 0 -x {0.0 4.0 10 ------- null}
- -t 1.136 -s 2 -d 3 -p cbr -e 1500 -c 0 -i 10 -a 0 -x {0.0 4.0 10 ------- null}
h -t 1.136 -s 2 -d 3 -p cbr -e 1500 -c 0 -i 10 -a 0 -x {0.0 4.0 -1 ------- null}
r -t 1.144 -s 2 -d 3 -p cbr -e 1500 -c 0 -i 8 -a 0 -x {0.0 4.0 8 ------- null}
+ -t 1.144 -s 3 -d 4 -p cbr -e 1500 -c 0 -i 8 -a 0 -x {0.0 4.0 8 ------- null}
- -t 1.144 -s 3 -d 4 -p cbr -e 1500 -c 0 -i 8 -a 0 -x {0.0 4.0 8 ------- null}
h -t 1.144 -s 3 -d 4 -p cbr -e 1500 -c 0 -i 8 -a 0 -x {0.0 4.0 -1 ------- null}
+ -t 1.144 -s 0 -d 2 -p cbr -e 1500 -c 0 -i 12 -a 0 -x {0.0 4.0 12 ------- null}
- -t 1.144 -s 0 -d 2 -p cbr -e 1500 -c 0 -i 12 -a 0 -x {0.0 4.0 12 ------- null}
h -t 1.144 -s 0 -d 2 -p cbr -e 1500 -c 0 -i 12 -a 0 -x {0.0 4.0 -1 ------- null}
r -t 1.148 -s 3 -d 4 -p cbr -e 1500 -c 0 -i 7 -a 0 -x {0.0 4.0 7 ------- null}
r -t 1.148 -s 0 -d 2 -p cbr -e 1500 -c 0 -i 11 -a 0 -x {0.0 4.0 11 ------- null}
+ -t 1.148 -s 2 -d 3 -p cbr -e 1500 -c 0 -i 11 -a 0 -x {0.0 4.0 11 ------- null}
- -t 1.148 -s 2 -d 3 -p cbr -e 1500 -c 0 -i 11 -a 0 -x {0.0 4.0 11 ------- null}
h -t 1.148 -s 2 -d 3 -p cbr -e 1500 -c 0 -i 11 -a 0 -x {0.0 4.0 -1 ------- null}
r -t 1.156 -s 2 -d 3 -p cbr -e 1500 -c 0 -i 9 -a 0 -x {0.0 4.0 9 ------- null}
+ -t 1.156 -s 3 -d 4 -p cbr -e 1500 -c 0 -i 9 -a 0 -x {0.0 4.0 9 ------- null}
- -t 1.156 -s 3 -d 4 -p cbr -e 1500 -c 0 -i 9 -a 0 -x {0.0 4.0 9 ------- null}
h -t 1.156 -s 3 -d 4 -p cbr -e 1500 -c 0 -i 9 -a 0 -x {0.0 4.0 -1 ------- null}
+ -t 1.156 -s 0 -d 2 -p cbr -e 1500 -c 0 -i 13 -a 0 -x {0.0 4.0 13 ------- null}
- -t 1.156 -s 0 -d 2 -p cbr -e 1500 -c 0 -i 13 -a 0 -x {0.0 4.0 13 ------- null}
h -t 1.156 -s 0 -d 2 -p cbr -e 1500 -c 0 -i 13 -a 0 -x {0.0 4.0 -1 ------- null}
r -t 1.16 -s 3 -d 4 -p cbr -e 1500 -c 0 -i 8 -a 0 -x {0.0 4.0 8 ------- null}
r -t 1.16 -s 0 -d 2 -p cbr -e 1500 -c 0 -i 12 -a 0 -x {0.0 4.0 12 ------- null}
+ -t 1.16 -s 2 -d 3 -p cbr -e 1500 -c 0 -i 12 -a 0 -x {0.0 4.0 12 ------- null}
- -t 1.16 -s 2 -d 3 -p cbr -e 1500 -c 0 -i 12 -a 0 -x {0.0 4.0 12 ------- null}
h -t 1.16 -s 2 -d 3 -p cbr -e 1500 -c 0 -i 12 -a 0 -x {0.0 4.0 -1 ------- null}
r -t 1.168 -s 2 -d 3 -p cbr -e 1500 -c 0 -i 10 -a 0 -x {0.0 4.0 10 ------- null}
+ -t 1.168 -s 3 -d 4 -p cbr -e 1500 -c 0 -i 10 -a 0 -x {0.0 4.0 10 ------- null}
- -t 1.168 -s 3 -d 4 -p cbr -e 1500 -c 0 -i 10 -a 0 -x {0.0 4.0 10 ------- null}
h -t 1.168 -s 3 -d 4 -p cbr -e 1500 -c 0 -i 10 -a 0 -x {0.0 4.0 -1 ------- null}
+ -t 1.168 -s 0 -d 2 -p cbr -e 1500 -c 0 -i 14 -a 0 -x {0.0 4.0 14 ------- null}
- -t 1.168 -s 0 -d 2 -p cbr -e 1500 -c 0 -i 14 -a 0 -x {0.0 4.0 14 ------- null}
h -t 1.168 -s 0 -d 2 -p cbr -e 1500 -c 0 -i 14 -a 0 -x {0.0 4.0 -1 ------- null}
r -t 1.172 -s 3 -d 4 -p cbr -e 1500 -c 0 -i 9 -a 0 -x {0.0 4.0 9 ------- null}
r -t 1.172 -s 0 -d 2 -p cbr -e 1500 -c 0 -i 13 -a 0 -x {0.0 4.0 13 ------- null}
+ -t 1.172 -s 2 -d 3 -p cbr -e 1500 -c 0 -i 13 -a 0 -x {0.0 4.0 13 ------- null}
- -t 1.172 -s 2 -d 3 -p cbr -e 1500 -c 0 -i 13 -a 0 -x {0.0 4.0 13 ------- null}
h -t 1.172 -s 2 -d 3 -p cbr -e 1500 -c 0 -i 13 -a 0 -x {0.0 4.0 -1 ------- null}
r -t 1.18 -s 2 -d 3 -p cbr -e 1500 -c 0 -i 11 -a 0 -x {0.0 4.0 11 ------- null}
+ -t 1.18 -s 3 -d 4 -p cbr -e 1500 -c 0 -i 11 -a 0 -x {0.0 4.0 11 ------- null}
- -t 1.18 -s 3 -d 4 -p cbr -e 1500 -c 0 -i 11 -a 0 -x {0.0 4.0 11 ------- null}
h -t 1.18 -s 3 -d 4 -p cbr -e 1500 -c 0 -i 11 -a 0 -x {0.0 4.0 -1 ------- null}
+ -t 1.18 -s 0 -d 2 -p cbr -e 1500 -c 0 -i 15 -a 0 -x {0.0 4.0 15 ------- null}
- -t 1.18 -s 0 -d 2 -p cbr -e 1500 -c 0 -i 15 -a 0 -x {0.0 4.0 15 ------- null}
h -t 1.18 -s 0 -d 2 -p cbr -e 1500 -c 0 -i 15 -a 0 -x {0.0 4.0 -1 ------- null}
r -t 1.184 -s 3 -d 4 -p cbr -e 1500 -c 0 -i 10 -a 0 -x {0.0 4.0 10 ------- null}
r -t 1.184 -s 0 -d 2 -p cbr -e 1500 -c 0 -i 14 -a 0 -x {0.0 4.0 14 ------- null}
+ -t 1.184 -s 2 -d 3 -p cbr -e 1500 -c 0 -i 14 -a 0 -x {0.0 4.0 14 ------- null}
- -t 1.184 -s 2 -d 3 -p cbr -e 1500 -c 0 -i 14 -a 0 -x {0.0 4.0 14 ------- null}
h -t 1.184 -s 2 -d 3 -p cbr -e 1500 -c 0 -i 14 -a 0 -x {0.0 4.0 -1 ------- null}
r -t 1.192 -s 2 -d 3 -p cbr -e 1500 -c 0 -i 12 -a 0 -x {0.0 4.0 12 ------- null}
+ -t 1.192 -s 3 -d 4 -p cbr -e 1500 -c 0 -i 12 -a 0 -x {0.0 4.0 12 ------- null}
- -t 1.192 -s 3 -d 4 -p cbr -e 1500 -c 0 -i 12 -a 0 -x {0.0 4.0 12 ------- null}
h -t 1.192 -s 3 -d 4 -p cbr -e 1500 -c 0 -i 12 -a 0 -x {0.0 4.0 -1 ------- null}
+ -t 1.192 -s 0 -d 2 -p cbr -e 1500 -c 0 -i 16 -a 0 -x {0.0 4.0 16 ------- null}
- -t 1.192 -s 0 -d 2 -p cbr -e 1500 -c 0 -i 16 -a 0 -x {0.0 4.0 16 ------- null}
h -t 1.192 -s 0 -d 2 -p cbr -e 1500 -c 0 -i 16 -a 0 -x {0.0 4.0 -1 ------- null}
r -t 1.196 -s 3 -d 4 -p cbr -e 1500 -c 0 -i 11 -a 0 -x {0.0 4.0 11 ------- null}
r -t 1.196 -s 0 -d 2 -p cbr -e 1500 -c 0 -i 15 -a 0 -x {0.0 4.0 15 ------- null}
+ -t 1.196 -s 2 -d 3 -p cbr -e 1500 -c 0 -i 15 -a 0 -x {0.0 4.0 15 ------- null}
- -t 1.196 -s 2 -d 3 -p cbr -e 1500 -c 0 -i 15 -a 0 -x {0.0 4.0 15 ------- null}
h -t 1.196 -s 2 -d 3 -p cbr -e 1500 -c 0 -i 15 -a 0 -x {0.0 4.0 -1 ------- null}
r -t 1.204 -s 2 -d 3 -p cbr -e 1500 -c 0 -i 13 -a 0 -x {0.0 4.0 13 ------- null}
+ -t 1.204 -s 3 -d 4 -p cbr -e 1500 -c 0 -i 13 -a 0 -x {0.0 4.0 13 ------- null}
- -t 1.204 -s 3 -d 4 -p cbr -e 1500 -c 0 -i 13 -a 0 -x {0.0 4.0 13 ------- null}
h -t 1.204 -s 3 -d 4 -p cbr -e 1500 -c 0 -i 13 -a 0 -x {0.0 4.0 -1 ------- null}
+ -t 1.204 -s 0 -d 2 -p cbr -e 1500 -c 0 -i 17 -a 0 -x {0.0 4.0 17 ------- null}
- -t 1.204 -s 0 -d 2 -p cbr -e 1500 -c 0 -i 17 -a 0 -x {0.0 4.0 17 ------- null}
h -t 1.204 -s 0 -d 2 -p cbr -e 1500 -c 0 -i 17 -a 0 -x {0.0 4.0 -1 ------- null}
r -t 1.208 -s 3 -d 4 -p cbr -e 1500 -c 0 -i 12 -a 0 -x {0.0 4.0 12 ------- null}
r -t 1.208 -s 0 -d 2 -p cbr -e 1500 -c 0 -i 16 -a 0 -x {0.0 4.0 16 ------- null}
+ -t 1.208 -s 2 -d 3 -p cbr -e 1500 -c 0 -i 16 -a 0 -x {0.0 4.0 16 ------- null}
- -t 1.208 -s 2 -d 3 -p cbr -e 1500 -c 0 -i 16 -a 0 -x {0.0 4.0 16 ------- null}
h -t 1.208 -s 2 -d 3 -p cbr -e 1500 -c 0 -i 16 -a 0 -x {0.0 4.0 -1 ------- null}
r -t 1.216 -s 2 -d 3 -p cbr -e 1500 -c 0 -i 14 -a 0 -x {0.0 4.0 14 ------- null}
+ -t 1.216 -s 3 -d 4 -p cbr -e 1500 -c 0 -i 14 -a 0 -x {0.0 4.0 14 ------- null}
- -t 1.216 -s 3 -d 4 -p cbr -e 1500 -c 0 -i 14 -a 0 -x {0.0 4.0 14 ------- null}
h -t 1.216 -s 3 -d 4 -p cbr -e 1500 -c 0 -i 14 -a 0 -x {0.0 4.0 -1 ------- null}
+ -t 1.216 -s 0 -d 2 -p cbr -e 1500 -c 0 -i 18 -a 0 -x {0.0 4.0 18 ------- null}
- -t 1.216 -s 0 -d 2 -p cbr -e 1500 -c 0 -i 18 -a 0 -x {0.0 4.0 18 ------- null}
h -t 1.216 -s 0 -d 2 -p cbr -e 1500 -c 0 -i 18 -a 0 -x {0.0 4.0 -1 ------- null}
r -t 1.22 -s 3 -d 4 -p cbr -e 1500 -c 0 -i 13 -a 0 -x {0.0 4.0 13 ------- null}
r -t 1.22 -s 0 -d 2 -p cbr -e 1500 -c 0 -i 17 -a 0 -x {0.0 4.0 17 ------- null}
+ -t 1.22 -s 2 -d 3 -p cbr -e 1500 -c 0 -i 17 -a 0 -x {0.0 4.0 17 ------- null}
- -t 1.22 -s 2 -d 3 -p cbr -e 1500 -c 0 -i 17 -a 0 -x {0.0 4.0 17 ------- null}
h -t 1.22 -s 2 -d 3 -p cbr -e 1500 -c 0 -i 17 -a 0 -x {0.0 4.0 -1 ------- null}
r -t 1.228 -s 2 -d 3 -p cbr -e 1500 -c 0 -i 15 -a 0 -x {0.0 4.0 15 ------- null}
+ -t 1.228 -s 3 -d 4 -p cbr -e 1500 -c 0 -i 15 -a 0 -x {0.0 4.0 15 ------- null}
- -t 1.228 -s 3 -d 4 -p cbr -e 1500 -c 0 -i 15 -a 0 -x {0.0 4.0 15 ------- null}
h -t 1.228 -s 3 -d 4 -p cbr -e 1500 -c 0 -i 15 -a 0 -x {0.0 4.0 -1 ------- null}
+ -t 1.228 -s 0 -d 2 -p cbr -e 1500 -c 0 -i 19 -a 0 -x {0.0 4.0 19 ------- null}
- -t 1.228 -s 0 -d 2 -p cbr -e 1500 -c 0 -i 19 -a 0 -x {0.0 4.0 19 ------- null}
h -t 1.228 -s 0 -d 2 -p cbr -e 1500 -c 0 -i 19 -a 0 -x {0.0 4.0 -1 ------- null}
r -t 1.232 -s 3 -d 4 -p cbr -e 1500 -c 0 -i 14 -a 0 -x {0.0 4.0 14 ------- null}
r -t 1.232 -s 0 -d 2 -p cbr -e 1500 -c 0 -i 18 -a 0 -x {0.0 4.0 18 ------- null}
+ -t 1.232 -s 2 -d 3 -p cbr -e 1500 -c 0 -i 18 -a 0 -x {0.0 4.0 18 ------- null}
- -t 1.232 -s 2 -d 3 -p cbr -e 1500 -c 0 -i 18 -a 0 -x {0.0 4.0 18 ------- null}
h -t 1.232 -s 2 -d 3 -p cbr -e 1500 -c 0 -i 18 -a 0 -x {0.0 4.0 -1 ------- null}
r -t 1.24 -s 2 -d 3 -p cbr -e 1500 -c 0 -i 16 -a 0 -x {0.0 4.0 16 ------- null}
+ -t 1.24 -s 3 -d 4 -p cbr -e 1500 -c 0 -i 16 -a 0 -x {0.0 4.0 16 ------- null}
- -t 1.24 -s 3 -d 4 -p cbr -e 1500 -c 0 -i 16 -a 0 -x {0.0 4.0 16 ------- null}
h -t 1.24 -s 3 -d 4 -p cbr -e 1500 -c 0 -i 16 -a 0 -x {0.0 4.0 -1 ------- null}
+ -t 1.24 -s 0 -d 2 -p cbr -e 1500 -c 0 -i 20 -a 0 -x {0.0 4.0 20 ------- null}
- -t 1.24 -s 0 -d 2 -p cbr -e 1500 -c 0 -i 20 -a 0 -x {0.0 4.0 20 ------- null}
h -t 1.24 -s 0 -d 2 -p cbr -e 1500 -c 0 -i 20 -a 0 -x {0.0 4.0 -1 ------- null}
r -t 1.244 -s 3 -d 4 -p cbr -e 1500 -c 0 -i 15 -a 0 -x {0.0 4.0 15 ------- null}
r -t 1.244 -s 0 -d 2 -p cbr -e 1500 -c 0 -i 19 -a 0 -x {0.0 4.0 19 ------- null}
+ -t 1.244 -s 2 -d 3 -p cbr -e 1500 -c 0 -i 19 -a 0 -x {0.0 4.0 19 ------- null}
- -t 1.244 -s 2 -d 3 -p cbr -e 1500 -c 0 -i 19 -a 0 -x {0.0 4.0 19 ------- null}
h -t 1.244 -s 2 -d 3 -p cbr -e 1500 -c 0 -i 19 -a 0 -x {0.0 4.0 -1 ------- null}
r -t 1.252 -s 2 -d 3 -p cbr -e 1500 -c 0 -i 17 -a 0 -x {0.0 4.0 17 ------- null}
+ -t 1.252 -s 3 -d 4 -p cbr -e 1500 -c 0 -i 17 -a 0 -x {0.0 4.0 17 ------- null}
- -t 1.252 -s 3 -d 4 -p cbr -e 1500 -c 0 -i 17 -a 0 -x {0.0 4.0 17 ------- null}
h -t 1.252 -s 3 -d 4 -p cbr -e 1500 -c 0 -i 17 -a 0 -x {0.0 4.0 -1 ------- null}
+ -t 1.252 -s 0 -d 2 -p cbr -e 1500 -c 0 -i 21 -a 0 -x {0.0 4.0 21 ------- null}
- -t 1.252 -s 0 -d 2 -p cbr -e 1500 -c 0 -i 21 -a 0 -x {0.0 4.0 21 ------- null}
h -t 1.252 -s 0 -d 2 -p cbr -e 1500 -c 0 -i 21 -a 0 -x {0.0 4.0 -1 ------- null}
r -t 1.256 -s 3 -d 4 -p cbr -e 1500 -c 0 -i 16 -a 0 -x {0.0 4.0 16 ------- null}
r -t 1.256 -s 0 -d 2 -p cbr -e 1500 -c 0 -i 20 -a 0 -x {0.0 4.0 20 ------- null}
+ -t 1.256 -s 2 -d 3 -p cbr -e 1500 -c 0 -i 20 -a 0 -x {0.0 4.0 20 ------- null}
- -t 1.256 -s 2 -d 3 -p cbr -e 1500 -c 0 -i 20 -a 0 -x {0.0 4.0 20 ------- null}
h -t 1.256 -s 2 -d 3 -p cbr -e 1500 -c 0 -i 20 -a 0 -x {0.0 4.0 -1 ------- null}
r -t 1.264 -s 2 -d 3 -p cbr -e 1500 -c 0 -i 18 -a 0 -x {0.0 4.0 18 ------- null}
+ -t 1.264 -s 3 -d 4 -p cbr -e 1500 -c 0 -i 18 -a 0 -x {0.0 4.0 18 ------- null}
- -t 1.264 -s 3 -d 4 -p cbr -e 1500 -c 0 -i 18 -a 0 -x {0.0 4.0 18 ------- null}
h -t 1.264 -s 3 -d 4 -p cbr -e 1500 -c 0 -i 18 -a 0 -x {0.0 4.0 -1 ------- null}
+ -t 1.264 -s 0 -d 2 -p cbr -e 1500 -c 0 -i 22 -a 0 -x {0.0 4.0 22 ------- null}
- -t 1.264 -s 0 -d 2 -p cbr -e 1500 -c 0 -i 22 -a 0 -x {0.0 4.0 22 ------- null}
h -t 1.264 -s 0 -d 2 -p cbr -e 1500 -c 0 -i 22 -a 0 -x {0.0 4.0 -1 ------- null}
r -t 1.268 -s 3 -d 4 -p cbr -e 1500 -c 0 -i 17 -a 0 -x {0.0 4.0 17 ------- null}
r -t 1.268 -s 0 -d 2 -p cbr -e 1500 -c 0 -i 21 -a 0 -x {0.0 4.0 21 ------- null}
+ -t 1.268 -s 2 -d 3 -p cbr -e 1500 -c 0 -i 21 -a 0 -x {0.0 4.0 21 ------- null}
- -t 1.268 -s 2 -d 3 -p cbr -e 1500 -c 0 -i 21 -a 0 -x {0.0 4.0 21 ------- null}
h -t 1.268 -s 2 -d 3 -p cbr -e 1500 -c 0 -i 21 -a 0 -x {0.0 4.0 -1 ------- null}
r -t 1.276 -s 2 -d 3 -p cbr -e 1500 -c 0 -i 19 -a 0 -x {0.0 4.0 19 ------- null}
+ -t 1.276 -s 3 -d 4 -p cbr -e 1500 -c 0 -i 19 -a 0 -x {0.0 4.0 19 ------- null}
- -t 1.276 -s 3 -d 4 -p cbr -e 1500 -c 0 -i 19 -a 0 -x {0.0 4.0 19 ------- null}
h -t 1.276 -s 3 -d 4 -p cbr -e 1500 -c 0 -i 19 -a 0 -x {0.0 4.0 -1 ------- null}
+ -t 1.276 -s 0 -d 2 -p cbr -e 1500 -c 0 -i 23 -a 0 -x {0.0 4.0 23 ------- null}
- -t 1.276 -s 0 -d 2 -p cbr -e 1500 -c 0 -i 23 -a 0 -x {0.0 4.0 23 ------- null}
h -t 1.276 -s 0 -d 2 -p cbr -e 1500 -c 0 -i 23 -a 0 -x {0.0 4.0 -1 ------- null}
r -t 1.28 -s 3 -d 4 -p cbr -e 1500 -c 0 -i 18 -a 0 -x {0.0 4.0 18 ------- null}
r -t 1.28 -s 0 -d 2 -p cbr -e 1500 -c 0 -i 22 -a 0 -x {0.0 4.0 22 ------- null}
+ -t 1.28 -s 2 -d 3 -p cbr -e 1500 -c 0 -i 22 -a 0 -x {0.0 4.0 22 ------- null}
- -t 1.28 -s 2 -d 3 -p cbr -e 1500 -c 0 -i 22 -a 0 -x {0.0 4.0 22 ------- null}
h -t 1.28 -s 2 -d 3 -p cbr -e 1500 -c 0 -i 22 -a 0 -x {0.0 4.0 -1 ------- null}
r -t 1.288 -s 2 -d 3 -p cbr -e 1500 -c 0 -i 20 -a 0 -x {0.0 4.0 20 ------- null}
+ -t 1.288 -s 3 -d 4 -p cbr -e 1500 -c 0 -i 20 -a 0 -x {0.0 4.0 20 ------- null}
- -t 1.288 -s 3 -d 4 -p cbr -e 1500 -c 0 -i 20 -a 0 -x {0.0 4.0 20 ------- null}
h -t 1.288 -s 3 -d 4 -p cbr -e 1500 -c 0 -i 20 -a 0 -x {0.0 4.0 -1 ------- null}
+ -t 1.288 -s 0 -d 2 -p cbr -e 1500 -c 0 -i 24 -a 0 -x {0.0 4.0 24 ------- null}
- -t 1.288 -s 0 -d 2 -p cbr -e 1500 -c 0 -i 24 -a 0 -x {0.0 4.0 24 ------- null}
h -t 1.288 -s 0 -d 2 -p cbr -e 1500 -c 0 -i 24 -a 0 -x {0.0 4.0 -1 ------- null}
r -t 1.292 -s 3 -d 4 -p cbr -e 1500 -c 0 -i 19 -a 0 -x {0.0 4.0 19 ------- null}
r -t 1.292 -s 0 -d 2 -p cbr -e 1500 -c 0 -i 23 -a 0 -x {0.0 4.0 23 ------- null}
+ -t 1.292 -s 2 -d 3 -p cbr -e 1500 -c 0 -i 23 -a 0 -x {0.0 4.0 23 ------- null}
- -t 1.292 -s 2 -d 3 -p cbr -e 1500 -c 0 -i 23 -a 0 -x {0.0 4.0 23 ------- null}
h -t 1.292 -s 2 -d 3 -p cbr -e 1500 -c 0 -i 23 -a 0 -x {0.0 4.0 -1 ------- null}
r -t 1.3 -s 2 -d 3 -p cbr -e 1500 -c 0 -i 21 -a 0 -x {0.0 4.0 21 ------- null}
+ -t 1.3 -s 3 -d 4 -p cbr -e 1500 -c 0 -i 21 -a 0 -x {0.0 4.0 21 ------- null}
- -t 1.3 -s 3 -d 4 -p cbr -e 1500 -c 0 -i 21 -a 0 -x {0.0 4.0 21 ------- null}
h -t 1.3 -s 3 -d 4 -p cbr -e 1500 -c 0 -i 21 -a 0 -x {0.0 4.0 -1 ------- null}
+ -t 1.3 -s 0 -d 2 -p cbr -e 1500 -c 0 -i 25 -a 0 -x {0.0 4.0 25 ------- null}
- -t 1.3 -s 0 -d 2 -p cbr -e 1500 -c 0 -i 25 -a 0 -x {0.0 4.0 25 ------- null}
h -t 1.3 -s 0 -d 2 -p cbr -e 1500 -c 0 -i 25 -a 0 -x {0.0 4.0 -1 ------- null}
r -t 1.304 -s 3 -d 4 -p cbr -e 1500 -c 0 -i 20 -a 0 -x {0.0 4.0 20 ------- null}
r -t 1.304 -s 0 -d 2 -p cbr -e 1500 -c 0 -i 24 -a 0 -x {0.0 4.0 24 ------- null}
+ -t 1.304 -s 2 -d 3 -p cbr -e 1500 -c 0 -i 24 -a 0 -x {0.0 4.0 24 ------- null}
- -t 1.304 -s 2 -d 3 -p cbr -e 1500 -c 0 -i 24 -a 0 -x {0.0 4.0 24 ------- null}
h -t 1.304 -s 2 -d 3 -p cbr -e 1500 -c 0 -i 24 -a 0 -x {0.0 4.0 -1 ------- null}
r -t 1.312 -s 2 -d 3 -p cbr -e 1500 -c 0 -i 22 -a 0 -x {0.0 4.0 22 ------- null}
+ -t 1.312 -s 3 -d 4 -p cbr -e 1500 -c 0 -i 22 -a 0 -x {0.0 4.0 22 ------- null}
- -t 1.312 -s 3 -d 4 -p cbr -e 1500 -c 0 -i 22 -a 0 -x {0.0 4.0 22 ------- null}
h -t 1.312 -s 3 -d 4 -p cbr -e 1500 -c 0 -i 22 -a 0 -x {0.0 4.0 -1 ------- null}
+ -t 1.312 -s 0 -d 2 -p cbr -e 1500 -c 0 -i 26 -a 0 -x {0.0 4.0 26 ------- null}
- -t 1.312 -s 0 -d 2 -p cbr -e 1500 -c 0 -i 26 -a 0 -x {0.0 4.0 26 ------- null}
h -t 1.312 -s 0 -d 2 -p cbr -e 1500 -c 0 -i 26 -a 0 -x {0.0 4.0 -1 ------- null}
r -t 1.316 -s 3 -d 4 -p cbr -e 1500 -c 0 -i 21 -a 0 -x {0.0 4.0 21 ------- null}
r -t 1.316 -s 0 -d 2 -p cbr -e 1500 -c 0 -i 25 -a 0 -x {0.0 4.0 25 ------- null}
+ -t 1.316 -s 2 -d 3 -p cbr -e 1500 -c 0 -i 25 -a 0 -x {0.0 4.0 25 ------- null}
- -t 1.316 -s 2 -d 3 -p cbr -e 1500 -c 0 -i 25 -a 0 -x {0.0 4.0 25 ------- null}
h -t 1.316 -s 2 -d 3 -p cbr -e 1500 -c 0 -i 25 -a 0 -x {0.0 4.0 -1 ------- null}
r -t 1.324 -s 2 -d 3 -p cbr -e 1500 -c 0 -i 23 -a 0 -x {0.0 4.0 23 ------- null}
+ -t 1.324 -s 3 -d 4 -p cbr -e 1500 -c 0 -i 23 -a 0 -x {0.0 4.0 23 ------- null}
- -t 1.324 -s 3 -d 4 -p cbr -e 1500 -c 0 -i 23 -a 0 -x {0.0 4.0 23 ------- null}
h -t 1.324 -s 3 -d 4 -p cbr -e 1500 -c 0 -i 23 -a 0 -x {0.0 4.0 -1 ------- null}
+ -t 1.324 -s 0 -d 2 -p cbr -e 1500 -c 0 -i 27 -a 0 -x {0.0 4.0 27 ------- null}
- -t 1.324 -s 0 -d 2 -p cbr -e 1500 -c 0 -i 27 -a 0 -x {0.0 4.0 27 ------- null}
h -t 1.324 -s 0 -d 2 -p cbr -e 1500 -c 0 -i 27 -a 0 -x {0.0 4.0 -1 ------- null}
r -t 1.328 -s 3 -d 4 -p cbr -e 1500 -c 0 -i 22 -a 0 -x {0.0 4.0 22 ------- null}
r -t 1.328 -s 0 -d 2 -p cbr -e 1500 -c 0 -i 26 -a 0 -x {0.0 4.0 26 ------- null}
+ -t 1.328 -s 2 -d 3 -p cbr -e 1500 -c 0 -i 26 -a 0 -x {0.0 4.0 26 ------- null}
- -t 1.328 -s 2 -d 3 -p cbr -e 1500 -c 0 -i 26 -a 0 -x {0.0 4.0 26 ------- null}
h -t 1.328 -s 2 -d 3 -p cbr -e 1500 -c 0 -i 26 -a 0 -x {0.0 4.0 -1 ------- null}
r -t 1.336 -s 2 -d 3 -p cbr -e 1500 -c 0 -i 24 -a 0 -x {0.0 4.0 24 ------- null}
+ -t 1.336 -s 3 -d 4 -p cbr -e 1500 -c 0 -i 24 -a 0 -x {0.0 4.0 24 ------- null}
- -t 1.336 -s 3 -d 4 -p cbr -e 1500 -c 0 -i 24 -a 0 -x {0.0 4.0 24 ------- null}
h -t 1.336 -s 3 -d 4 -p cbr -e 1500 -c 0 -i 24 -a 0 -x {0.0 4.0 -1 ------- null}
+ -t 1.336 -s 0 -d 2 -p cbr -e 1500 -c 0 -i 28 -a 0 -x {0.0 4.0 28 ------- null}
- -t 1.336 -s 0 -d 2 -p cbr -e 1500 -c 0 -i 28 -a 0 -x {0.0 4.0 28 ------- null}
h -t 1.336 -s 0 -d 2 -p cbr -e 1500 -c 0 -i 28 -a 0 -x {0.0 4.0 -1 ------- null}
r -t 1.34 -s 3 -d 4 -p cbr -e 1500 -c 0 -i 23 -a 0 -x {0.0 4.0 23 ------- null}
r -t 1.34 -s 0 -d 2 -p cbr -e 1500 -c 0 -i 27 -a 0 -x {0.0 4.0 27 ------- null}
+ -t 1.34 -s 2 -d 3 -p cbr -e 1500 -c 0 -i 27 -a 0 -x {0.0 4.0 27 ------- null}
- -t 1.34 -s 2 -d 3 -p cbr -e 1500 -c 0 -i 27 -a 0 -x {0.0 4.0 27 ------- null}
h -t 1.34 -s 2 -d 3 -p cbr -e 1500 -c 0 -i 27 -a 0 -x {0.0 4.0 -1 ------- null}
r -t 1.348 -s 2 -d 3 -p cbr -e 1500 -c 0 -i 25 -a 0 -x {0.0 4.0 25 ------- null}
+ -t 1.348 -s 3 -d 4 -p cbr -e 1500 -c 0 -i 25 -a 0 -x {0.0 4.0 25 ------- null}
- -t 1.348 -s 3 -d 4 -p cbr -e 1500 -c 0 -i 25 -a 0 -x {0.0 4.0 25 ------- null}
h -t 1.348 -s 3 -d 4 -p cbr -e 1500 -c 0 -i 25 -a 0 -x {0.0 4.0 -1 ------- null}
+ -t 1.348 -s 0 -d 2 -p cbr -e 1500 -c 0 -i 29 -a 0 -x {0.0 4.0 29 ------- null}
- -t 1.348 -s 0 -d 2 -p cbr -e 1500 -c 0 -i 29 -a 0 -x {0.0 4.0 29 ------- null}
h -t 1.348 -s 0 -d 2 -p cbr -e 1500 -c 0 -i 29 -a 0 -x {0.0 4.0 -1 ------- null}
r -t 1.352 -s 3 -d 4 -p cbr -e 1500 -c 0 -i 24 -a 0 -x {0.0 4.0 24 ------- null}
r -t 1.352 -s 0 -d 2 -p cbr -e 1500 -c 0 -i 28 -a 0 -x {0.0 4.0 28 ------- null}
+ -t 1.352 -s 2 -d 3 -p cbr -e 1500 -c 0 -i 28 -a 0 -x {0.0 4.0 28 ------- null}
- -t 1.352 -s 2 -d 3 -p cbr -e 1500 -c 0 -i 28 -a 0 -x {0.0 4.0 28 ------- null}
h -t 1.352 -s 2 -d 3 -p cbr -e 1500 -c 0 -i 28 -a 0 -x {0.0 4.0 -1 ------- null}
r -t 1.36 -s 2 -d 3 -p cbr -e 1500 -c 0 -i 26 -a 0 -x {0.0 4.0 26 ------- null}
+ -t 1.36 -s 3 -d 4 -p cbr -e 1500 -c 0 -i 26 -a 0 -x {0.0 4.0 26 ------- null}
- -t 1.36 -s 3 -d 4 -p cbr -e 1500 -c 0 -i 26 -a 0 -x {0.0 4.0 26 ------- null}
h -t 1.36 -s 3 -d 4 -p cbr -e 1500 -c 0 -i 26 -a 0 -x {0.0 4.0 -1 ------- null}
+ -t 1.36 -s 0 -d 2 -p cbr -e 1500 -c 0 -i 30 -a 0 -x {0.0 4.0 30 ------- null}
- -t 1.36 -s 0 -d 2 -p cbr -e 1500 -c 0 -i 30 -a 0 -x {0.0 4.0 30 ------- null}
h -t 1.36 -s 0 -d 2 -p cbr -e 1500 -c 0 -i 30 -a 0 -x {0.0 4.0 -1 ------- null}
r -t 1.364 -s 3 -d 4 -p cbr -e 1500 -c 0 -i 25 -a 0 -x {0.0 4.0 25 ------- null}
r -t 1.364 -s 0 -d 2 -p cbr -e 1500 -c 0 -i 29 -a 0 -x {0.0 4.0 29 ------- null}
+ -t 1.364 -s 2 -d 3 -p cbr -e 1500 -c 0 -i 29 -a 0 -x {0.0 4.0 29 ------- null}
- -t 1.364 -s 2 -d 3 -p cbr -e 1500 -c 0 -i 29 -a 0 -x {0.0 4.0 29 ------- null}
h -t 1.364 -s 2 -d 3 -p cbr -e 1500 -c 0 -i 29 -a 0 -x {0.0 4.0 -1 ------- null}
r -t 1.372 -s 2 -d 3 -p cbr -e 1500 -c 0 -i 27 -a 0 -x {0.0 4.0 27 ------- null}
+ -t 1.372 -s 3 -d 4 -p cbr -e 1500 -c 0 -i 27 -a 0 -x {0.0 4.0 27 ------- null}
- -t 1.372 -s 3 -d 4 -p cbr -e 1500 -c 0 -i 27 -a 0 -x {0.0 4.0 27 ------- null}
h -t 1.372 -s 3 -d 4 -p cbr -e 1500 -c 0 -i 27 -a 0 -x {0.0 4.0 -1 ------- null}
+ -t 1.372 -s 0 -d 2 -p cbr -e 1500 -c 0 -i 31 -a 0 -x {0.0 4.0 31 ------- null}
- -t 1.372 -s 0 -d 2 -p cbr -e 1500 -c 0 -i 31 -a 0 -x {0.0 4.0 31 ------- null}
h -t 1.372 -s 0 -d 2 -p cbr -e 1500 -c 0 -i 31 -a 0 -x {0.0 4.0 -1 ------- null}
r -t 1.376 -s 3 -d 4 -p cbr -e 1500 -c 0 -i 26 -a 0 -x {0.0 4.0 26 ------- null}
r -t 1.376 -s 0 -d 2 -p cbr -e 1500 -c 0 -i 30 -a 0 -x {0.0 4.0 30 ------- null}
+ -t 1.376 -s 2 -d 3 -p cbr -e 1500 -c 0 -i 30 -a 0 -x {0.0 4.0 30 ------- null}
- -t 1.376 -s 2 -d 3 -p cbr -e 1500 -c 0 -i 30 -a 0 -x {0.0 4.0 30 ------- null}
h -t 1.376 -s 2 -d 3 -p cbr -e 1500 -c 0 -i 30 -a 0 -x {0.0 4.0 -1 ------- null}
r -t 1.384 -s 2 -d 3 -p cbr -e 1500 -c 0 -i 28 -a 0 -x {0.0 4.0 28 ------- null}
+ -t 1.384 -s 3 -d 4 -p cbr -e 1500 -c 0 -i 28 -a 0 -x {0.0 4.0 28 ------- null}
- -t 1.384 -s 3 -d 4 -p cbr -e 1500 -c 0 -i 28 -a 0 -x {0.0 4.0 28 ------- null}
h -t 1.384 -s 3 -d 4 -p cbr -e 1500 -c 0 -i 28 -a 0 -x {0.0 4.0 -1 ------- null}
+ -t 1.384 -s 0 -d 2 -p cbr -e 1500 -c 0 -i 32 -a 0 -x {0.0 4.0 32 ------- null}
- -t 1.384 -s 0 -d 2 -p cbr -e 1500 -c 0 -i 32 -a 0 -x {0.0 4.0 32 ------- null}