+ 0.271872 4 0 tcp 40 ------- 0 4.0 5.0 0 0
- 0.271872 4 0 tcp 40 ------- 0 4.0 5.0 0 0
r 0.272904 4 0 tcp 40 ------- 0 4.0 5.0 0 0
+ 0.272904 0 1 tcp 40 ------- 0 4.0 5.0 0 0
- 0.272904 0 1 tcp 40 ------- 0 4.0 5.0 0 0
r 0.283224 0 1 tcp 40 ------- 0 4.0 5.0 0 0
+ 0.283224 1 5 tcp 40 ------- 0 4.0 5.0 0 0
- 0.283224 1 5 tcp 40 ------- 0 4.0 5.0 0 0
r 0.284256 1 5 tcp 40 ------- 0 4.0 5.0 0 0
+ 0.284256 5 1 ack 40 ------- 0 5.0 4.0 0 1
- 0.284256 5 1 ack 40 ------- 0 5.0 4.0 0 1
r 0.285288 5 1 ack 40 ------- 0 5.0 4.0 0 1
+ 0.285288 1 0 ack 40 ------- 0 5.0 4.0 0 1
- 0.285288 1 0 ack 40 ------- 0 5.0 4.0 0 1
r 0.295608 1 0 ack 40 ------- 0 5.0 4.0 0 1
+ 0.295608 0 4 ack 40 ------- 0 5.0 4.0 0 1
- 0.295608 0 4 ack 40 ------- 0 5.0 4.0 0 1
r 0.29664 0 4 ack 40 ------- 0 5.0 4.0 0 1
+ 0.29664 4 0 tcp 1040 ------- 0 4.0 5.0 1 2
- 0.29664 4 0 tcp 1040 ------- 0 4.0 5.0 1 2
+ 0.29664 4 0 tcp 1040 ------- 0 4.0 5.0 2 3
- 0.297472 4 0 tcp 1040 ------- 0 4.0 5.0 2 3
r 0.298472 4 0 tcp 1040 ------- 0 4.0 5.0 1 2
+ 0.298472 0 1 tcp 1040 ------- 0 4.0 5.0 1 2
- 0.298472 0 1 tcp 1040 ------- 0 4.0 5.0 1 2
r 0.299304 4 0 tcp 1040 ------- 0 4.0 5.0 2 3
+ 0.299304 0 1 tcp 1040 ------- 0 4.0 5.0 2 3
- 0.306792 0 1 tcp 1040 ------- 0 4.0 5.0 2 3
r 0.316792 0 1 tcp 1040 ------- 0 4.0 5.0 1 2
+ 0.316792 1 5 tcp 1040 ------- 0 4.0 5.0 1 2
- 0.316792 1 5 tcp 1040 ------- 0 4.0 5.0 1 2
r 0.318624 1 5 tcp 1040 ------- 0 4.0 5.0 1 2
+ 0.318624 5 1 ack 40 ------- 0 5.0 4.0 1 4
- 0.318624 5 1 ack 40 ------- 0 5.0 4.0 1 4
r 0.319656 5 1 ack 40 ------- 0 5.0 4.0 1 4
+ 0.319656 1 0 ack 40 ------- 0 5.0 4.0 1 4
- 0.319656 1 0 ack 40 ------- 0 5.0 4.0 1 4
r 0.325112 0 1 tcp 1040 ------- 0 4.0 5.0 2 3
+ 0.325112 1 5 tcp 1040 ------- 0 4.0 5.0 2 3
- 0.325112 1 5 tcp 1040 ------- 0 4.0 5.0 2 3
r 0.326944 1 5 tcp 1040 ------- 0 4.0 5.0 2 3
+ 0.326944 5 1 ack 40 ------- 0 5.0 4.0 2 5
- 0.326944 5 1 ack 40 ------- 0 5.0 4.0 2 5
r 0.327976 5 1 ack 40 ------- 0 5.0 4.0 2 5
+ 0.327976 1 0 ack 40 ------- 0 5.0 4.0 2 5
- 0.327976 1 0 ack 40 ------- 0 5.0 4.0 2 5
r 0.329976 1 0 ack 40 ------- 0 5.0 4.0 1 4
+ 0.329976 0 4 ack 40 ------- 0 5.0 4.0 1 4
- 0.329976 0 4 ack 40 ------- 0 5.0 4.0 1 4
r 0.331008 0 4 ack 40 ------- 0 5.0 4.0 1 4
+ 0.331008 4 0 tcp 1040 ------- 0 4.0 5.0 3 6
- 0.331008 4 0 tcp 1040 ------- 0 4.0 5.0 3 6
+ 0.331008 4 0 tcp 1040 ------- 0 4.0 5.0 4 7
- 0.33184 4 0 tcp 1040 ------- 0 4.0 5.0 4 7
r 0.33284 4 0 tcp 1040 ------- 0 4.0 5.0 3 6
+ 0.33284 0 1 tcp 1040 ------- 0 4.0 5.0 3 6
- 0.33284 0 1 tcp 1040 ------- 0 4.0 5.0 3 6
r 0.333672 4 0 tcp 1040 ------- 0 4.0 5.0 4 7
+ 0.333672 0 1 tcp 1040 ------- 0 4.0 5.0 4 7
r 0.338296 1 0 ack 40 ------- 0 5.0 4.0 2 5
+ 0.338296 0 4 ack 40 ------- 0 5.0 4.0 2 5
- 0.338296 0 4 ack 40 ------- 0 5.0 4.0 2 5
r 0.339328 0 4 ack 40 ------- 0 5.0 4.0 2 5
+ 0.339328 4 0 tcp 1040 ------- 0 4.0 5.0 5 8
- 0.339328 4 0 tcp 1040 ------- 0 4.0 5.0 5 8
+ 0.339328 4 0 tcp 1040 ------- 0 4.0 5.0 6 9
- 0.34016 4 0 tcp 1040 ------- 0 4.0 5.0 6 9
- 0.34116 0 1 tcp 1040 ------- 0 4.0 5.0 4 7
r 0.34116 4 0 tcp 1040 ------- 0 4.0 5.0 5 8
+ 0.34116 0 1 tcp 1040 ------- 0 4.0 5.0 5 8
r 0.341992 4 0 tcp 1040 ------- 0 4.0 5.0 6 9
+ 0.341992 0 1 tcp 1040 ------- 0 4.0 5.0 6 9
- 0.34948 0 1 tcp 1040 ------- 0 4.0 5.0 5 8
r 0.35116 0 1 tcp 1040 ------- 0 4.0 5.0 3 6
+ 0.35116 1 5 tcp 1040 ------- 0 4.0 5.0 3 6
- 0.35116 1 5 tcp 1040 ------- 0 4.0 5.0 3 6
r 0.352992 1 5 tcp 1040 ------- 0 4.0 5.0 3 6
+ 0.352992 5 1 ack 40 ------- 0 5.0 4.0 3 10
- 0.352992 5 1 ack 40 ------- 0 5.0 4.0 3 10
r 0.354024 5 1 ack 40 ------- 0 5.0 4.0 3 10
+ 0.354024 1 0 ack 40 ------- 0 5.0 4.0 3 10
- 0.354024 1 0 ack 40 ------- 0 5.0 4.0 3 10
- 0.3578 0 1 tcp 1040 ------- 0 4.0 5.0 6 9
r 0.35948 0 1 tcp 1040 ------- 0 4.0 5.0 4 7
+ 0.35948 1 5 tcp 1040 ------- 0 4.0 5.0 4 7
- 0.35948 1 5 tcp 1040 ------- 0 4.0 5.0 4 7
r 0.361312 1 5 tcp 1040 ------- 0 4.0 5.0 4 7
+ 0.361312 5 1 ack 40 ------- 0 5.0 4.0 4 11
- 0.361312 5 1 ack 40 ------- 0 5.0 4.0 4 11
r 0.362344 5 1 ack 40 ------- 0 5.0 4.0 4 11
+ 0.362344 1 0 ack 40 ------- 0 5.0 4.0 4 11
- 0.362344 1 0 ack 40 ------- 0 5.0 4.0 4 11
r 0.364344 1 0 ack 40 ------- 0 5.0 4.0 3 10
+ 0.364344 0 4 ack 40 ------- 0 5.0 4.0 3 10
- 0.364344 0 4 ack 40 ------- 0 5.0 4.0 3 10
r 0.365376 0 4 ack 40 ------- 0 5.0 4.0 3 10
+ 0.365376 4 0 tcp 1040 ------- 0 4.0 5.0 7 12
- 0.365376 4 0 tcp 1040 ------- 0 4.0 5.0 7 12
+ 0.365376 4 0 tcp 1040 ------- 0 4.0 5.0 8 13
- 0.366208 4 0 tcp 1040 ------- 0 4.0 5.0 8 13
r 0.367208 4 0 tcp 1040 ------- 0 4.0 5.0 7 12
+ 0.367208 0 1 tcp 1040 ------- 0 4.0 5.0 7 12
- 0.367208 0 1 tcp 1040 ------- 0 4.0 5.0 7 12
r 0.3678 0 1 tcp 1040 ------- 0 4.0 5.0 5 8
+ 0.3678 1 5 tcp 1040 ------- 0 4.0 5.0 5 8
- 0.3678 1 5 tcp 1040 ------- 0 4.0 5.0 5 8
r 0.36804 4 0 tcp 1040 ------- 0 4.0 5.0 8 13
+ 0.36804 0 1 tcp 1040 ------- 0 4.0 5.0 8 13
r 0.369632 1 5 tcp 1040 ------- 0 4.0 5.0 5 8
+ 0.369632 5 1 ack 40 ------- 0 5.0 4.0 5 14
- 0.369632 5 1 ack 40 ------- 0 5.0 4.0 5 14
r 0.370664 5 1 ack 40 ------- 0 5.0 4.0 5 14
+ 0.370664 1 0 ack 40 ------- 0 5.0 4.0 5 14
- 0.370664 1 0 ack 40 ------- 0 5.0 4.0 5 14
r 0.372664 1 0 ack 40 ------- 0 5.0 4.0 4 11
+ 0.372664 0 4 ack 40 ------- 0 5.0 4.0 4 11
- 0.372664 0 4 ack 40 ------- 0 5.0 4.0 4 11
r 0.373696 0 4 ack 40 ------- 0 5.0 4.0 4 11
+ 0.373696 4 0 tcp 1040 ------- 0 4.0 5.0 9 15
- 0.373696 4 0 tcp 1040 ------- 0 4.0 5.0 9 15
+ 0.373696 4 0 tcp 1040 ------- 0 4.0 5.0 10 16
- 0.374528 4 0 tcp 1040 ------- 0 4.0 5.0 10 16
- 0.375528 0 1 tcp 1040 ------- 0 4.0 5.0 8 13
r 0.375528 4 0 tcp 1040 ------- 0 4.0 5.0 9 15
+ 0.375528 0 1 tcp 1040 ------- 0 4.0 5.0 9 15
r 0.37612 0 1 tcp 1040 ------- 0 4.0 5.0 6 9
+ 0.37612 1 5 tcp 1040 ------- 0 4.0 5.0 6 9
- 0.37612 1 5 tcp 1040 ------- 0 4.0 5.0 6 9
r 0.37636 4 0 tcp 1040 ------- 0 4.0 5.0 10 16
+ 0.37636 0 1 tcp 1040 ------- 0 4.0 5.0 10 16
r 0.377952 1 5 tcp 1040 ------- 0 4.0 5.0 6 9
+ 0.377952 5 1 ack 40 ------- 0 5.0 4.0 6 17
- 0.377952 5 1 ack 40 ------- 0 5.0 4.0 6 17
r 0.378984 5 1 ack 40 ------- 0 5.0 4.0 6 17
+ 0.378984 1 0 ack 40 ------- 0 5.0 4.0 6 17
- 0.378984 1 0 ack 40 ------- 0 5.0 4.0 6 17
r 0.380984 1 0 ack 40 ------- 0 5.0 4.0 5 14
+ 0.380984 0 4 ack 40 ------- 0 5.0 4.0 5 14
- 0.380984 0 4 ack 40 ------- 0 5.0 4.0 5 14
r 0.382016 0 4 ack 40 ------- 0 5.0 4.0 5 14
+ 0.382016 4 0 tcp 1040 ------- 0 4.0 5.0 11 18
- 0.382016 4 0 tcp 1040 ------- 0 4.0 5.0 11 18
+ 0.382016 4 0 tcp 1040 ------- 0 4.0 5.0 12 19
- 0.382848 4 0 tcp 1040 ------- 0 4.0 5.0 12 19
- 0.383848 0 1 tcp 1040 ------- 0 4.0 5.0 9 15
r 0.383848 4 0 tcp 1040 ------- 0 4.0 5.0 11 18
+ 0.383848 0 1 tcp 1040 ------- 0 4.0 5.0 11 18
r 0.38468 4 0 tcp 1040 ------- 0 4.0 5.0 12 19
+ 0.38468 0 1 tcp 1040 ------- 0 4.0 5.0 12 19
r 0.385528 0 1 tcp 1040 ------- 0 4.0 5.0 7 12
+ 0.385528 1 5 tcp 1040 ------- 0 4.0 5.0 7 12
- 0.385528 1 5 tcp 1040 ------- 0 4.0 5.0 7 12
r 0.38736 1 5 tcp 1040 ------- 0 4.0 5.0 7 12
+ 0.38736 5 1 ack 40 ------- 0 5.0 4.0 7 20
- 0.38736 5 1 ack 40 ------- 0 5.0 4.0 7 20
r 0.388392 5 1 ack 40 ------- 0 5.0 4.0 7 20
+ 0.388392 1 0 ack 40 ------- 0 5.0 4.0 7 20
- 0.388392 1 0 ack 40 ------- 0 5.0 4.0 7 20
r 0.389304 1 0 ack 40 ------- 0 5.0 4.0 6 17
+ 0.389304 0 4 ack 40 ------- 0 5.0 4.0 6 17
- 0.389304 0 4 ack 40 ------- 0 5.0 4.0 6 17
r 0.390336 0 4 ack 40 ------- 0 5.0 4.0 6 17
+ 0.390336 4 0 tcp 1040 ------- 0 4.0 5.0 13 21
- 0.390336 4 0 tcp 1040 ------- 0 4.0 5.0 13 21
+ 0.390336 4 0 tcp 1040 ------- 0 4.0 5.0 14 22
- 0.391168 4 0 tcp 1040 ------- 0 4.0 5.0 14 22
- 0.392168 0 1 tcp 1040 ------- 0 4.0 5.0 10 16
r 0.392168 4 0 tcp 1040 ------- 0 4.0 5.0 13 21
+ 0.392168 0 1 tcp 1040 ------- 0 4.0 5.0 13 21
r 0.393 4 0 tcp 1040 ------- 0 4.0 5.0 14 22
+ 0.393 0 1 tcp 1040 ------- 0 4.0 5.0 14 22
r 0.393848 0 1 tcp 1040 ------- 0 4.0 5.0 8 13
+ 0.393848 1 5 tcp 1040 ------- 0 4.0 5.0 8 13
- 0.393848 1 5 tcp 1040 ------- 0 4.0 5.0 8 13
r 0.39568 1 5 tcp 1040 ------- 0 4.0 5.0 8 13
+ 0.39568 5 1 ack 40 ------- 0 5.0 4.0 8 23
- 0.39568 5 1 ack 40 ------- 0 5.0 4.0 8 23
r 0.396712 5 1 ack 40 ------- 0 5.0 4.0 8 23
+ 0.396712 1 0 ack 40 ------- 0 5.0 4.0 8 23
- 0.396712 1 0 ack 40 ------- 0 5.0 4.0 8 23
r 0.398712 1 0 ack 40 ------- 0 5.0 4.0 7 20
+ 0.398712 0 4 ack 40 ------- 0 5.0 4.0 7 20
- 0.398712 0 4 ack 40 ------- 0 5.0 4.0 7 20
r 0.399744 0 4 ack 40 ------- 0 5.0 4.0 7 20
+ 0.399744 4 0 tcp 1040 ------- 0 4.0 5.0 15 24
- 0.399744 4 0 tcp 1040 ------- 0 4.0 5.0 15 24
+ 0.399744 4 0 tcp 1040 ------- 0 4.0 5.0 16 25
- 0.400488 0 1 tcp 1040 ------- 0 4.0 5.0 11 18
- 0.400576 4 0 tcp 1040 ------- 0 4.0 5.0 16 25
r 0.401576 4 0 tcp 1040 ------- 0 4.0 5.0 15 24
+ 0.401576 0 1 tcp 1040 ------- 0 4.0 5.0 15 24
r 0.402168 0 1 tcp 1040 ------- 0 4.0 5.0 9 15
+ 0.402168 1 5 tcp 1040 ------- 0 4.0 5.0 9 15
- 0.402168 1 5 tcp 1040 ------- 0 4.0 5.0 9 15
r 0.402408 4 0 tcp 1040 ------- 0 4.0 5.0 16 25
+ 0.402408 0 1 tcp 1040 ------- 0 4.0 5.0 16 25
r 0.404 1 5 tcp 1040 ------- 0 4.0 5.0 9 15
+ 0.404 5 1 ack 40 ------- 0 5.0 4.0 9 26
- 0.404 5 1 ack 40 ------- 0 5.0 4.0 9 26
r 0.405032 5 1 ack 40 ------- 0 5.0 4.0 9 26
+ 0.405032 1 0 ack 40 ------- 0 5.0 4.0 9 26
- 0.405032 1 0 ack 40 ------- 0 5.0 4.0 9 26
r 0.407032 1 0 ack 40 ------- 0 5.0 4.0 8 23
+ 0.407032 0 4 ack 40 ------- 0 5.0 4.0 8 23
- 0.407032 0 4 ack 40 ------- 0 5.0 4.0 8 23
r 0.408064 0 4 ack 40 ------- 0 5.0 4.0 8 23
+ 0.408064 4 0 tcp 1040 ------- 0 4.0 5.0 17 27
- 0.408064 4 0 tcp 1040 ------- 0 4.0 5.0 17 27
+ 0.408064 4 0 tcp 1040 ------- 0 4.0 5.0 18 28
- 0.408808 0 1 tcp 1040 ------- 0 4.0 5.0 12 19
- 0.408896 4 0 tcp 1040 ------- 0 4.0 5.0 18 28
r 0.409896 4 0 tcp 1040 ------- 0 4.0 5.0 17 27
+ 0.409896 0 1 tcp 1040 ------- 0 4.0 5.0 17 27
r 0.410488 0 1 tcp 1040 ------- 0 4.0 5.0 10 16
+ 0.410488 1 5 tcp 1040 ------- 0 4.0 5.0 10 16
- 0.410488 1 5 tcp 1040 ------- 0 4.0 5.0 10 16
r 0.410728 4 0 tcp 1040 ------- 0 4.0 5.0 18 28
+ 0.410728 0 1 tcp 1040 ------- 0 4.0 5.0 18 28
r 0.41232 1 5 tcp 1040 ------- 0 4.0 5.0 10 16
+ 0.41232 5 1 ack 40 ------- 0 5.0 4.0 10 29
- 0.41232 5 1 ack 40 ------- 0 5.0 4.0 10 29
r 0.413352 5 1 ack 40 ------- 0 5.0 4.0 10 29
+ 0.413352 1 0 ack 40 ------- 0 5.0 4.0 10 29
- 0.413352 1 0 ack 40 ------- 0 5.0 4.0 10 29
r 0.415352 1 0 ack 40 ------- 0 5.0 4.0 9 26
+ 0.415352 0 4 ack 40 ------- 0 5.0 4.0 9 26
- 0.415352 0 4 ack 40 ------- 0 5.0 4.0 9 26
r 0.416384 0 4 ack 40 ------- 0 5.0 4.0 9 26
+ 0.416384 4 0 tcp 1040 ------- 0 4.0 5.0 19 30
- 0.416384 4 0 tcp 1040 ------- 0 4.0 5.0 19 30
+ 0.416384 4 0 tcp 1040 ------- 0 4.0 5.0 20 31
- 0.417128 0 1 tcp 1040 ------- 0 4.0 5.0 13 21
- 0.417216 4 0 tcp 1040 ------- 0 4.0 5.0 20 31
r 0.418216 4 0 tcp 1040 ------- 0 4.0 5.0 19 30
+ 0.418216 0 1 tcp 1040 ------- 0 4.0 5.0 19 30
r 0.418808 0 1 tcp 1040 ------- 0 4.0 5.0 11 18
+ 0.418808 1 5 tcp 1040 ------- 0 4.0 5.0 11 18
- 0.418808 1 5 tcp 1040 ------- 0 4.0 5.0 11 18
r 0.419048 4 0 tcp 1040 ------- 0 4.0 5.0 20 31
+ 0.419048 0 1 tcp 1040 ------- 0 4.0 5.0 20 31
r 0.42064 1 5 tcp 1040 ------- 0 4.0 5.0 11 18
+ 0.42064 5 1 ack 40 ------- 0 5.0 4.0 11 32
- 0.42064 5 1 ack 40 ------- 0 5.0 4.0 11 32
r 0.421672 5 1 ack 40 ------- 0 5.0 4.0 11 32
+ 0.421672 1 0 ack 40 ------- 0 5.0 4.0 11 32
- 0.421672 1 0 ack 40 ------- 0 5.0 4.0 11 32
r 0.423672 1 0 ack 40 ------- 0 5.0 4.0 10 29
+ 0.423672 0 4 ack 40 ------- 0 5.0 4.0 10 29
- 0.423672 0 4 ack 40 ------- 0 5.0 4.0 10 29
r 0.424704 0 4 ack 40 ------- 0 5.0 4.0 10 29
+ 0.424704 4 0 tcp 1040 ------- 0 4.0 5.0 21 33
- 0.424704 4 0 tcp 1040 ------- 0 4.0 5.0 21 33
+ 0.424704 4 0 tcp 1040 ------- 0 4.0 5.0 22 34
- 0.425448 0 1 tcp 1040 ------- 0 4.0 5.0 14 22
- 0.425536 4 0 tcp 1040 ------- 0 4.0 5.0 22 34
r 0.426536 4 0 tcp 1040 ------- 0 4.0 5.0 21 33
+ 0.426536 0 1 tcp 1040 ------- 0 4.0 5.0 21 33
r 0.427128 0 1 tcp 1040 ------- 0 4.0 5.0 12 19
+ 0.427128 1 5 tcp 1040 ------- 0 4.0 5.0 12 19
- 0.427128 1 5 tcp 1040 ------- 0 4.0 5.0 12 19
r 0.427368 4 0 tcp 1040 ------- 0 4.0 5.0 22 34
+ 0.427368 0 1 tcp 1040 ------- 0 4.0 5.0 22 34
r 0.42896 1 5 tcp 1040 ------- 0 4.0 5.0 12 19
+ 0.42896 5 1 ack 40 ------- 0 5.0 4.0 12 35
- 0.42896 5 1 ack 40 ------- 0 5.0 4.0 12 35
r 0.429992 5 1 ack 40 ------- 0 5.0 4.0 12 35
+ 0.429992 1 0 ack 40 ------- 0 5.0 4.0 12 35
- 0.429992 1 0 ack 40 ------- 0 5.0 4.0 12 35
r 0.431992 1 0 ack 40 ------- 0 5.0 4.0 11 32
+ 0.431992 0 4 ack 40 ------- 0 5.0 4.0 11 32
- 0.431992 0 4 ack 40 ------- 0 5.0 4.0 11 32
r 0.433024 0 4 ack 40 ------- 0 5.0 4.0 11 32
+ 0.433024 4 0 tcp 1040 ------- 0 4.0 5.0 23 36
- 0.433024 4 0 tcp 1040 ------- 0 4.0 5.0 23 36
+ 0.433024 4 0 tcp 1040 ------- 0 4.0 5.0 24 37
- 0.433768 0 1 tcp 1040 ------- 0 4.0 5.0 15 24
- 0.433856 4 0 tcp 1040 ------- 0 4.0 5.0 24 37
r 0.434856 4 0 tcp 1040 ------- 0 4.0 5.0 23 36
+ 0.434856 0 1 tcp 1040 ------- 0 4.0 5.0 23 36
r 0.435448 0 1 tcp 1040 ------- 0 4.0 5.0 13 21
+ 0.435448 1 5 tcp 1040 ------- 0 4.0 5.0 13 21
- 0.435448 1 5 tcp 1040 ------- 0 4.0 5.0 13 21
r 0.435688 4 0 tcp 1040 ------- 0 4.0 5.0 24 37
+ 0.435688 0 1 tcp 1040 ------- 0 4.0 5.0 24 37
r 0.43728 1 5 tcp 1040 ------- 0 4.0 5.0 13 21
+ 0.43728 5 1 ack 40 ------- 0 5.0 4.0 13 38
- 0.43728 5 1 ack 40 ------- 0 5.0 4.0 13 38
r 0.438312 5 1 ack 40 ------- 0 5.0 4.0 13 38
+ 0.438312 1 0 ack 40 ------- 0 5.0 4.0 13 38
- 0.438312 1 0 ack 40 ------- 0 5.0 4.0 13 38
r 0.440312 1 0 ack 40 ------- 0 5.0 4.0 12 35
+ 0.440312 0 4 ack 40 ------- 0 5.0 4.0 12 35
- 0.440312 0 4 ack 40 ------- 0 5.0 4.0 12 35
r 0.441344 0 4 ack 40 ------- 0 5.0 4.0 12 35
+ 0.441344 4 0 tcp 1040 ------- 0 4.0 5.0 25 39
- 0.441344 4 0 tcp 1040 ------- 0 4.0 5.0 25 39
+ 0.441344 4 0 tcp 1040 ------- 0 4.0 5.0 26 40
- 0.442088 0 1 tcp 1040 ------- 0 4.0 5.0 16 25
- 0.442176 4 0 tcp 1040 ------- 0 4.0 5.0 26 40
r 0.443176 4 0 tcp 1040 ------- 0 4.0 5.0 25 39
+ 0.443176 0 1 tcp 1040 ------- 0 4.0 5.0 25 39
r 0.443768 0 1 tcp 1040 ------- 0 4.0 5.0 14 22
+ 0.443768 1 5 tcp 1040 ------- 0 4.0 5.0 14 22
- 0.443768 1 5 tcp 1040 ------- 0 4.0 5.0 14 22
r 0.444008 4 0 tcp 1040 ------- 0 4.0 5.0 26 40
+ 0.444008 0 1 tcp 1040 ------- 0 4.0 5.0 26 40
d 0.444008 0 1 tcp 1040 ------- 0 4.0 5.0 26 40
r 0.4456 1 5 tcp 1040 ------- 0 4.0 5.0 14 22
+ 0.4456 5 1 ack 40 ------- 0 5.0 4.0 14 41
- 0.4456 5 1 ack 40 ------- 0 5.0 4.0 14 41
r 0.446632 5 1 ack 40 ------- 0 5.0 4.0 14 41
+ 0.446632 1 0 ack 40 ------- 0 5.0 4.0 14 41
- 0.446632 1 0 ack 40 ------- 0 5.0 4.0 14 41
r 0.448632 1 0 ack 40 ------- 0 5.0 4.0 13 38
+ 0.448632 0 4 ack 40 ------- 0 5.0 4.0 13 38
- 0.448632 0 4 ack 40 ------- 0 5.0 4.0 13 38
r 0.449664 0 4 ack 40 ------- 0 5.0 4.0 13 38
+ 0.449664 4 0 tcp 1040 ------- 0 4.0 5.0 27 42
- 0.449664 4 0 tcp 1040 ------- 0 4.0 5.0 27 42
+ 0.449664 4 0 tcp 1040 ------- 0 4.0 5.0 28 43
- 0.450408 0 1 tcp 1040 ------- 0 4.0 5.0 17 27
- 0.450496 4 0 tcp 1040 ------- 0 4.0 5.0 28 43
r 0.451496 4 0 tcp 1040 ------- 0 4.0 5.0 27 42
+ 0.451496 0 1 tcp 1040 ------- 0 4.0 5.0 27 42
r 0.452088 0 1 tcp 1040 ------- 0 4.0 5.0 15 24
+ 0.452088 1 5 tcp 1040 ------- 0 4.0 5.0 15 24
- 0.452088 1 5 tcp 1040 ------- 0 4.0 5.0 15 24
r 0.452328 4 0 tcp 1040 ------- 0 4.0 5.0 28 43
+ 0.452328 0 1 tcp 1040 ------- 0 4.0 5.0 28 43
d 0.452328 0 1 tcp 1040 ------- 0 4.0 5.0 28 43
r 0.45392 1 5 tcp 1040 ------- 0 4.0 5.0 15 24
+ 0.45392 5 1 ack 40 ------- 0 5.0 4.0 15 44
- 0.45392 5 1 ack 40 ------- 0 5.0 4.0 15 44
r 0.454952 5 1 ack 40 ------- 0 5.0 4.0 15 44
+ 0.454952 1 0 ack 40 ------- 0 5.0 4.0 15 44
- 0.454952 1 0 ack 40 ------- 0 5.0 4.0 15 44
r 0.456952 1 0 ack 40 ------- 0 5.0 4.0 14 41
+ 0.456952 0 4 ack 40 ------- 0 5.0 4.0 14 41
- 0.456952 0 4 ack 40 ------- 0 5.0 4.0 14 41
r 0.457984 0 4 ack 40 ------- 0 5.0 4.0 14 41
+ 0.457984 4 0 tcp 1040 ------- 0 4.0 5.0 29 45
- 0.457984 4 0 tcp 1040 ------- 0 4.0 5.0 29 45
+ 0.457984 4 0 tcp 1040 ------- 0 4.0 5.0 30 46
- 0.458728 0 1 tcp 1040 ------- 0 4.0 5.0 18 28
- 0.458816 4 0 tcp 1040 ------- 0 4.0 5.0 30 46
r 0.459816 4 0 tcp 1040 ------- 0 4.0 5.0 29 45
+ 0.459816 0 1 tcp 1040 ------- 0 4.0 5.0 29 45
r 0.460408 0 1 tcp 1040 ------- 0 4.0 5.0 16 25
+ 0.460408 1 5 tcp 1040 ------- 0 4.0 5.0 16 25
- 0.460408 1 5 tcp 1040 ------- 0 4.0 5.0 16 25
r 0.460648 4 0 tcp 1040 ------- 0 4.0 5.0 30 46
+ 0.460648 0 1 tcp 1040 ------- 0 4.0 5.0 30 46
d 0.460648 0 1 tcp 1040 ------- 0 4.0 5.0 30 46
r 0.46224 1 5 tcp 1040 ------- 0 4.0 5.0 16 25
+ 0.46224 5 1 ack 40 ------- 0 5.0 4.0 16 47
- 0.46224 5 1 ack 40 ------- 0 5.0 4.0 16 47
r 0.463272 5 1 ack 40 ------- 0 5.0 4.0 16 47
+ 0.463272 1 0 ack 40 ------- 0 5.0 4.0 16 47
- 0.463272 1 0 ack 40 ------- 0 5.0 4.0 16 47
r 0.465272 1 0 ack 40 ------- 0 5.0 4.0 15 44
+ 0.465272 0 4 ack 40 ------- 0 5.0 4.0 15 44
- 0.465272 0 4 ack 40 ------- 0 5.0 4.0 15 44
r 0.466304 0 4 ack 40 ------- 0 5.0 4.0 15 44
+ 0.466304 4 0 tcp 1040 ------- 0 4.0 5.0 31 48
- 0.466304 4 0 tcp 1040 ------- 0 4.0 5.0 31 48
+ 0.466304 4 0 tcp 1040 ------- 0 4.0 5.0 32 49
- 0.467048 0 1 tcp 1040 ------- 0 4.0 5.0 19 30
- 0.467136 4 0 tcp 1040 ------- 0 4.0 5.0 32 49
r 0.468136 4 0 tcp 1040 ------- 0 4.0 5.0 31 48
+ 0.468136 0 1 tcp 1040 ------- 0 4.0 5.0 31 48
r 0.468728 0 1 tcp 1040 ------- 0 4.0 5.0 17 27
+ 0.468728 1 5 tcp 1040 ------- 0 4.0 5.0 17 27
- 0.468728 1 5 tcp 1040 ------- 0 4.0 5.0 17 27
r 0.468968 4 0 tcp 1040 ------- 0 4.0 5.0 32 49
+ 0.468968 0 1 tcp 1040 ------- 0 4.0 5.0 32 49
d 0.468968 0 1 tcp 1040 ------- 0 4.0 5.0 32 49
r 0.47056 1 5 tcp 1040 ------- 0 4.0 5.0 17 27
+ 0.47056 5 1 ack 40 ------- 0 5.0 4.0 17 50
- 0.47056 5 1 ack 40 ------- 0 5.0 4.0 17 50
r 0.471592 5 1 ack 40 ------- 0 5.0 4.0 17 50
+ 0.471592 1 0 ack 40 ------- 0 5.0 4.0 17 50
- 0.471592 1 0 ack 40 ------- 0 5.0 4.0 17 50
r 0.473592 1 0 ack 40 ------- 0 5.0 4.0 16 47
+ 0.473592 0 4 ack 40 ------- 0 5.0 4.0 16 47
- 0.473592 0 4 ack 40 ------- 0 5.0 4.0 16 47
r 0.474624 0 4 ack 40 ------- 0 5.0 4.0 16 47
+ 0.474624 4 0 tcp 1040 ------- 0 4.0 5.0 33 51
- 0.474624 4 0 tcp 1040 ------- 0 4.0 5.0 33 51
+ 0.474624 4 0 tcp 1040 ------- 0 4.0 5.0 34 52
- 0.475368 0 1 tcp 1040 ------- 0 4.0 5.0 20 31
- 0.475456 4 0 tcp 1040 ------- 0 4.0 5.0 34 52
r 0.476456 4 0 tcp 1040 ------- 0 4.0 5.0 33 51
+ 0.476456 0 1 tcp 1040 ------- 0 4.0 5.0 33 51
r 0.477048 0 1 tcp 1040 ------- 0 4.0 5.0 18 28
+ 0.477048 1 5 tcp 1040 ------- 0 4.0 5.0 18 28
- 0.477048 1 5 tcp 1040 ------- 0 4.0 5.0 18 28
r 0.477288 4 0 tcp 1040 ------- 0 4.0 5.0 34 52
+ 0.477288 0 1 tcp 1040 ------- 0 4.0 5.0 34 52
d 0.477288 0 1 tcp 1040 ------- 0 4.0 5.0 34 52
r 0.47888 1 5 tcp 1040 ------- 0 4.0 5.0 18 28
+ 0.47888 5 1 ack 40 ------- 0 5.0 4.0 18 53
- 0.47888 5 1 ack 40 ------- 0 5.0 4.0 18 53
r 0.479912 5 1 ack 40 ------- 0 5.0 4.0 18 53
+ 0.479912 1 0 ack 40 ------- 0 5.0 4.0 18 53
- 0.479912 1 0 ack 40 ------- 0 5.0 4.0 18 53
r 0.481912 1 0 ack 40 ------- 0 5.0 4.0 17 50
+ 0.481912 0 4 ack 40 ------- 0 5.0 4.0 17 50
- 0.481912 0 4 ack 40 ------- 0 5.0 4.0 17 50
r 0.482944 0 4 ack 40 ------- 0 5.0 4.0 17 50
+ 0.482944 4 0 tcp 1040 ------- 0 4.0 5.0 35 54
- 0.482944 4 0 tcp 1040 ------- 0 4.0 5.0 35 54
+ 0.482944 4 0 tcp 1040 ------- 0 4.0 5.0 36 55
- 0.483688 0 1 tcp 1040 ------- 0 4.0 5.0 21 33
- 0.483776 4 0 tcp 1040 ------- 0 4.0 5.0 36 55
r 0.484776 4 0 tcp 1040 ------- 0 4.0 5.0 35 54
+ 0.484776 0 1 tcp 1040 ------- 0 4.0 5.0 35 54
r 0.485368 0 1 tcp 1040 ------- 0 4.0 5.0 19 30
+ 0.485368 1 5 tcp 1040 ------- 0 4.0 5.0 19 30
- 0.485368 1 5 tcp 1040 ------- 0 4.0 5.0 19 30
r 0.485608 4 0 tcp 1040 ------- 0 4.0 5.0 36 55
+ 0.485608 0 1 tcp 1040 ------- 0 4.0 5.0 36 55
d 0.485608 0 1 tcp 1040 ------- 0 4.0 5.0 36 55
r 0.4872 1 5 tcp 1040 ------- 0 4.0 5.0 19 30
+ 0.4872 5 1 ack 40 ------- 0 5.0 4.0 19 56
- 0.4872 5 1 ack 40 ------- 0 5.0 4.0 19 56
r 0.488232 5 1 ack 40 ------- 0 5.0 4.0 19 56
+ 0.488232 1 0 ack 40 ------- 0 5.0 4.0 19 56
- 0.488232 1 0 ack 40 ------- 0 5.0 4.0 19 56
r 0.490232 1 0 ack 40 ------- 0 5.0 4.0 18 53
+ 0.490232 0 4 ack 40 ------- 0 5.0 4.0 18 53
- 0.490232 0 4 ack 40 ------- 0 5.0 4.0 18 53
r 0.491264 0 4 ack 40 ------- 0 5.0 4.0 18 53
+ 0.491264 4 0 tcp 1040 ------- 0 4.0 5.0 37 57
- 0.491264 4 0 tcp 1040 ------- 0 4.0 5.0 37 57
+ 0.491264 4 0 tcp 1040 ------- 0 4.0 5.0 38 58
- 0.492008 0 1 tcp 1040 ------- 0 4.0 5.0 22 34
- 0.492096 4 0 tcp 1040 ------- 0 4.0 5.0 38 58
r 0.493096 4 0 tcp 1040 ------- 0 4.0 5.0 37 57
+ 0.493096 0 1 tcp 1040 ------- 0 4.0 5.0 37 57
r 0.493688 0 1 tcp 1040 ------- 0 4.0 5.0 20 31
+ 0.493688 1 5 tcp 1040 ------- 0 4.0 5.0 20 31
- 0.493688 1 5 tcp 1040 ------- 0 4.0 5.0 20 31
r 0.493928 4 0 tcp 1040 ------- 0 4.0 5.0 38 58
+ 0.493928 0 1 tcp 1040 ------- 0 4.0 5.0 38 58
d 0.493928 0 1 tcp 1040 ------- 0 4.0 5.0 38 58
r 0.49552 1 5 tcp 1040 ------- 0 4.0 5.0 20 31
+ 0.49552 5 1 ack 40 ------- 0 5.0 4.0 20 59
- 0.49552 5 1 ack 40 ------- 0 5.0 4.0 20 59
r 0.496552 5 1 ack 40 ------- 0 5.0 4.0 20 59
+ 0.496552 1 0 ack 40 ------- 0 5.0 4.0 20 59
- 0.496552 1 0 ack 40 ------- 0 5.0 4.0 20 59
r 0.498552 1 0 ack 40 ------- 0 5.0 4.0 19 56
+ 0.498552 0 4 ack 40 ------- 0 5.0 4.0 19 56
- 0.498552 0 4 ack 40 ------- 0 5.0 4.0 19 56
r 0.499584 0 4 ack 40 ------- 0 5.0 4.0 19 56
+ 0.499584 4 0 tcp 1040 ------- 0 4.0 5.0 39 60
- 0.499584 4 0 tcp 1040 ------- 0 4.0 5.0 39 60
- 0.500328 0 1 tcp 1040 ------- 0 4.0 5.0 23 36
r 0.501416 4 0 tcp 1040 ------- 0 4.0 5.0 39 60
+ 0.501416 0 1 tcp 1040 ------- 0 4.0 5.0 39 60
r 0.502008 0 1 tcp 1040 ------- 0 4.0 5.0 21 33
+ 0.502008 1 5 tcp 1040 ------- 0 4.0 5.0 21 33
- 0.502008 1 5 tcp 1040 ------- 0 4.0 5.0 21 33
r 0.50384 1 5 tcp 1040 ------- 0 4.0 5.0 21 33
+ 0.50384 5 1 ack 40 ------- 0 5.0 4.0 21 61
- 0.50384 5 1 ack 40 ------- 0 5.0 4.0 21 61
r 0.504872 5 1 ack 40 ------- 0 5.0 4.0 21 61
+ 0.504872 1 0 ack 40 ------- 0 5.0 4.0 21 61
- 0.504872 1 0 ack 40 ------- 0 5.0 4.0 21 61
r 0.506872 1 0 ack 40 ------- 0 5.0 4.0 20 59
+ 0.506872 0 4 ack 40 ------- 0 5.0 4.0 20 59
- 0.506872 0 4 ack 40 ------- 0 5.0 4.0 20 59
r 0.507904 0 4 ack 40 ------- 0 5.0 4.0 20 59
+ 0.507904 4 0 tcp 1040 ------- 0 4.0 5.0 40 62
- 0.507904 4 0 tcp 1040 ------- 0 4.0 5.0 40 62
- 0.508648 0 1 tcp 1040 ------- 0 4.0 5.0 24 37
r 0.509736 4 0 tcp 1040 ------- 0 4.0 5.0 40 62
+ 0.509736 0 1 tcp 1040 ------- 0 4.0 5.0 40 62
r 0.510328 0 1 tcp 1040 ------- 0 4.0 5.0 22 34
+ 0.510328 1 5 tcp 1040 ------- 0 4.0 5.0 22 34
- 0.510328 1 5 tcp 1040 ------- 0 4.0 5.0 22 34
r 0.51216 1 5 tcp 1040 ------- 0 4.0 5.0 22 34
+ 0.51216 5 1 ack 40 ------- 0 5.0 4.0 22 63
- 0.51216 5 1 ack 40 ------- 0 5.0 4.0 22 63
r 0.513192 5 1 ack 40 ------- 0 5.0 4.0 22 63
+ 0.513192 1 0 ack 40 ------- 0 5.0 4.0 22 63
- 0.513192 1 0 ack 40 ------- 0 5.0 4.0 22 63
r 0.515192 1 0 ack 40 ------- 0 5.0 4.0 21 61
+ 0.515192 0 4 ack 40 ------- 0 5.0 4.0 21 61
- 0.515192 0 4 ack 40 ------- 0 5.0 4.0 21 61
r 0.516224 0 4 ack 40 ------- 0 5.0 4.0 21 61
+ 0.516224 4 0 tcp 1040 ------- 0 4.0 5.0 41 64
- 0.516224 4 0 tcp 1040 ------- 0 4.0 5.0 41 64
- 0.516968 0 1 tcp 1040 ------- 0 4.0 5.0 25 39
r 0.518056 4 0 tcp 1040 ------- 0 4.0 5.0 41 64
+ 0.518056 0 1 tcp 1040 ------- 0 4.0 5.0 41 64
r 0.518648 0 1 tcp 1040 ------- 0 4.0 5.0 23 36
+ 0.518648 1 5 tcp 1040 ------- 0 4.0 5.0 23 36
- 0.518648 1 5 tcp 1040 ------- 0 4.0 5.0 23 36
r 0.52048 1 5 tcp 1040 ------- 0 4.0 5.0 23 36
+ 0.52048 5 1 ack 40 ------- 0 5.0 4.0 23 65
- 0.52048 5 1 ack 40 ------- 0 5.0 4.0 23 65
r 0.521512 5 1 ack 40 ------- 0 5.0 4.0 23 65
+ 0.521512 1 0 ack 40 ------- 0 5.0 4.0 23 65
- 0.521512 1 0 ack 40 ------- 0 5.0 4.0 23 65
r 0.523512 1 0 ack 40 ------- 0 5.0 4.0 22 63
+ 0.523512 0 4 ack 40 ------- 0 5.0 4.0 22 63
- 0.523512 0 4 ack 40 ------- 0 5.0 4.0 22 63
r 0.524544 0 4 ack 40 ------- 0 5.0 4.0 22 63
+ 0.524544 4 0 tcp 1040 ------- 0 4.0 5.0 42 66
- 0.524544 4 0 tcp 1040 ------- 0 4.0 5.0 42 66
- 0.525288 0 1 tcp 1040 ------- 0 4.0 5.0 27 42
r 0.526376 4 0 tcp 1040 ------- 0 4.0 5.0 42 66
+ 0.526376 0 1 tcp 1040 ------- 0 4.0 5.0 42 66
r 0.526968 0 1 tcp 1040 ------- 0 4.0 5.0 24 37
+ 0.526968 1 5 tcp 1040 ------- 0 4.0 5.0 24 37
- 0.526968 1 5 tcp 1040 ------- 0 4.0 5.0 24 37
r 0.5288 1 5 tcp 1040 ------- 0 4.0 5.0 24 37
+ 0.5288 5 1 ack 40 ------- 0 5.0 4.0 24 67
- 0.5288 5 1 ack 40 ------- 0 5.0 4.0 24 67
r 0.529832 5 1 ack 40 ------- 0 5.0 4.0 24 67
+ 0.529832 1 0 ack 40 ------- 0 5.0 4.0 24 67
- 0.529832 1 0 ack 40 ------- 0 5.0 4.0 24 67
r 0.531832 1 0 ack 40 ------- 0 5.0 4.0 23 65
+ 0.531832 0 4 ack 40 ------- 0 5.0 4.0 23 65
- 0.531832 0 4 ack 40 ------- 0 5.0 4.0 23 65
r 0.532864 0 4 ack 40 ------- 0 5.0 4.0 23 65
+ 0.532864 4 0 tcp 1040 ------- 0 4.0 5.0 43 68
- 0.532864 4 0 tcp 1040 ------- 0 4.0 5.0 43 68
- 0.533608 0 1 tcp 1040 ------- 0 4.0 5.0 29 45
r 0.534696 4 0 tcp 1040 ------- 0 4.0 5.0 43 68
+ 0.534696 0 1 tcp 1040 ------- 0 4.0 5.0 43 68
r 0.535288 0 1 tcp 1040 ------- 0 4.0 5.0 25 39
+ 0.535288 1 5 tcp 1040 ------- 0 4.0 5.0 25 39
- 0.535288 1 5 tcp 1040 ------- 0 4.0 5.0 25 39
r 0.53712 1 5 tcp 1040 ------- 0 4.0 5.0 25 39
+ 0.53712 5 1 ack 40 ------- 0 5.0 4.0 25 69
- 0.53712 5 1 ack 40 ------- 0 5.0 4.0 25 69
r 0.538152 5 1 ack 40 ------- 0 5.0 4.0 25 69
+ 0.538152 1 0 ack 40 ------- 0 5.0 4.0 25 69
- 0.538152 1 0 ack 40 ------- 0 5.0 4.0 25 69
r 0.540152 1 0 ack 40 ------- 0 5.0 4.0 24 67
+ 0.540152 0 4 ack 40 ------- 0 5.0 4.0 24 67
- 0.540152 0 4 ack 40 ------- 0 5.0 4.0 24 67
r 0.541184 0 4 ack 40 ------- 0 5.0 4.0 24 67
+ 0.541184 4 0 tcp 1040 ------- 0 4.0 5.0 44 70
- 0.541184 4 0 tcp 1040 ------- 0 4.0 5.0 44 70
- 0.541928 0 1 tcp 1040 ------- 0 4.0 5.0 31 48
r 0.543016 4 0 tcp 1040 ------- 0 4.0 5.0 44 70
+ 0.543016 0 1 tcp 1040 ------- 0 4.0 5.0 44 70
r 0.543608 0 1 tcp 1040 ------- 0 4.0 5.0 27 42
+ 0.543608 1 5 tcp 1040 ------- 0 4.0 5.0 27 42
- 0.543608 1 5 tcp 1040 ------- 0 4.0 5.0 27 42
r 0.54544 1 5 tcp 1040 ------- 0 4.0 5.0 27 42
+ 0.54544 5 1 ack 40 ------- 0 5.0 4.0 25 71
- 0.54544 5 1 ack 40 ------- 0 5.0 4.0 25 71
r 0.546472 5 1 ack 40 ------- 0 5.0 4.0 25 71
+ 0.546472 1 0 ack 40 ------- 0 5.0 4.0 25 71
- 0.546472 1 0 ack 40 ------- 0 5.0 4.0 25 71
r 0.548472 1 0 ack 40 ------- 0 5.0 4.0 25 69
+ 0.548472 0 4 ack 40 ------- 0 5.0 4.0 25 69
- 0.548472 0 4 ack 40 ------- 0 5.0 4.0 25 69
r 0.549504 0 4 ack 40 ------- 0 5.0 4.0 25 69
+ 0.549504 4 0 tcp 1040 ------- 0 4.0 5.0 45 72
- 0.549504 4 0 tcp 1040 ------- 0 4.0 5.0 45 72
- 0.550248 0 1 tcp 1040 ------- 0 4.0 5.0 33 51
r 0.551336 4 0 tcp 1040 ------- 0 4.0 5.0 45 72
+ 0.551336 0 1 tcp 1040 ------- 0 4.0 5.0 45 72
r 0.551928 0 1 tcp 1040 ------- 0 4.0 5.0 29 45
+ 0.551928 1 5 tcp 1040 ------- 0 4.0 5.0 29 45
- 0.551928 1 5 tcp 1040 ------- 0 4.0 5.0 29 45
r 0.55376 1 5 tcp 1040 ------- 0 4.0 5.0 29 45
+ 0.55376 5 1 ack 40 ------- 0 5.0 4.0 25 73
- 0.55376 5 1 ack 40 ------- 0 5.0 4.0 25 73
r 0.554792 5 1 ack 40 ------- 0 5.0 4.0 25 73
+ 0.554792 1 0 ack 40 ------- 0 5.0 4.0 25 73
- 0.554792 1 0 ack 40 ------- 0 5.0 4.0 25 73
r 0.556792 1 0 ack 40 ------- 0 5.0 4.0 25 71
+ 0.556792 0 4 ack 40 ------- 0 5.0 4.0 25 71
- 0.556792 0 4 ack 40 ------- 0 5.0 4.0 25 71
r 0.557824 0 4 ack 40 ------- 0 5.0 4.0 25 71
- 0.558568 0 1 tcp 1040 ------- 0 4.0 5.0 35 54
r 0.560248 0 1 tcp 1040 ------- 0 4.0 5.0 31 48
+ 0.560248 1 5 tcp 1040 ------- 0 4.0 5.0 31 48
- 0.560248 1 5 tcp 1040 ------- 0 4.0 5.0 31 48
r 0.56208 1 5 tcp 1040 ------- 0 4.0 5.0 31 48
+ 0.56208 5 1 ack 40 ------- 0 5.0 4.0 25 74
- 0.56208 5 1 ack 40 ------- 0 5.0 4.0 25 74
r 0.563112 5 1 ack 40 ------- 0 5.0 4.0 25 74
+ 0.563112 1 0 ack 40 ------- 0 5.0 4.0 25 74
- 0.563112 1 0 ack 40 ------- 0 5.0 4.0 25 74
r 0.565112 1 0 ack 40 ------- 0 5.0 4.0 25 73
+ 0.565112 0 4 ack 40 ------- 0 5.0 4.0 25 73
- 0.565112 0 4 ack 40 ------- 0 5.0 4.0 25 73
r 0.566144 0 4 ack 40 ------- 0 5.0 4.0 25 73
- 0.566888 0 1 tcp 1040 ------- 0 4.0 5.0 37 57
r 0.568568 0 1 tcp 1040 ------- 0 4.0 5.0 33 51
+ 0.568568 1 5 tcp 1040 ------- 0 4.0 5.0 33 51
- 0.568568 1 5 tcp 1040 ------- 0 4.0 5.0 33 51
r 0.5704 1 5 tcp 1040 ------- 0 4.0 5.0 33 51
+ 0.5704 5 1 ack 40 ------- 0 5.0 4.0 25 75
- 0.5704 5 1 ack 40 ------- 0 5.0 4.0 25 75
r 0.571432 5 1 ack 40 ------- 0 5.0 4.0 25 75
+ 0.571432 1 0 ack 40 ------- 0 5.0 4.0 25 75
- 0.571432 1 0 ack 40 ------- 0 5.0 4.0 25 75
r 0.573432 1 0 ack 40 ------- 0 5.0 4.0 25 74
+ 0.573432 0 4 ack 40 ------- 0 5.0 4.0 25 74
- 0.573432 0 4 ack 40 ------- 0 5.0 4.0 25 74
r 0.574464 0 4 ack 40 ------- 0 5.0 4.0 25 74
+ 0.574464 4 0 tcp 1040 ---A--- 0 4.0 5.0 26 76
- 0.574464 4 0 tcp 1040 ---A--- 0 4.0 5.0 26 76
- 0.575208 0 1 tcp 1040 ------- 0 4.0 5.0 39 60
r 0.576296 4 0 tcp 1040 ---A--- 0 4.0 5.0 26 76
+ 0.576296 0 1 tcp 1040 ---A--- 0 4.0 5.0 26 76
r 0.576888 0 1 tcp 1040 ------- 0 4.0 5.0 35 54
+ 0.576888 1 5 tcp 1040 ------- 0 4.0 5.0 35 54
- 0.576888 1 5 tcp 1040 ------- 0 4.0 5.0 35 54
r 0.57872 1 5 tcp 1040 ------- 0 4.0 5.0 35 54
+ 0.57872 5 1 ack 40 ------- 0 5.0 4.0 25 77
- 0.57872 5 1 ack 40 ------- 0 5.0 4.0 25 77
r 0.579752 5 1 ack 40 ------- 0 5.0 4.0 25 77
+ 0.579752 1 0 ack 40 ------- 0 5.0 4.0 25 77
- 0.579752 1 0 ack 40 ------- 0 5.0 4.0 25 77
r 0.581752 1 0 ack 40 ------- 0 5.0 4.0 25 75
+ 0.581752 0 4 ack 40 ------- 0 5.0 4.0 25 75
- 0.581752 0 4 ack 40 ------- 0 5.0 4.0 25 75
r 0.582784 0 4 ack 40 ------- 0 5.0 4.0 25 75
- 0.583528 0 1 tcp 1040 ------- 0 4.0 5.0 40 62
r 0.585208 0 1 tcp 1040 ------- 0 4.0 5.0 37 57
+ 0.585208 1 5 tcp 1040 ------- 0 4.0 5.0 37 57
- 0.585208 1 5 tcp 1040 ------- 0 4.0 5.0 37 57
r 0.58704 1 5 tcp 1040 ------- 0 4.0 5.0 37 57
+ 0.58704 5 1 ack 40 ------- 0 5.0 4.0 25 78
- 0.58704 5 1 ack 40 ------- 0 5.0 4.0 25 78
r 0.588072 5 1 ack 40 ------- 0 5.0 4.0 25 78
+ 0.588072 1 0 ack 40 ------- 0 5.0 4.0 25 78
- 0.588072 1 0 ack 40 ------- 0 5.0 4.0 25 78
r 0.590072 1 0 ack 40 ------- 0 5.0 4.0 25 77
+ 0.590072 0 4 ack 40 ------- 0 5.0 4.0 25 77
- 0.590072 0 4 ack 40 ------- 0 5.0 4.0 25 77
r 0.591104 0 4 ack 40 ------- 0 5.0 4.0 25 77
- 0.591848 0 1 tcp 1040 ------- 0 4.0 5.0 41 64
r 0.593528 0 1 tcp 1040 ------- 0 4.0 5.0 39 60
+ 0.593528 1 5 tcp 1040 ------- 0 4.0 5.0 39 60
- 0.593528 1 5 tcp 1040 ------- 0 4.0 5.0 39 60