V -t * -v 1.0a5 -a 0
A -t * -n 1 -p 0 -o 0x7fffffff -c 30 -a 1
A -t * -h 1 -m 1073741823 -s 0
n -t * -a 4 -s 4 -S UP -v circle -c black -i black
n -t * -a 0 -s 0 -S UP -v circle -c black -i black
n -t * -a 5 -s 5 -S UP -v circle -c black -i black
n -t * -a 1 -s 1 -S UP -v circle -c black -i black
n -t * -a 6 -s 6 -S UP -v circle -c black -i black
n -t * -a 2 -s 2 -S UP -v circle -c black -i black
n -t * -a 7 -s 7 -S UP -v circle -c black -i black
n -t * -a 3 -s 3 -S UP -v circle -c black -i black
l -t * -s 0 -d 1 -S UP -r 1000000 -D 0.01 -c black
l -t * -s 2 -d 0 -S UP -r 10000000 -D 0.001 -c black
l -t * -s 1 -d 3 -S UP -r 10000000 -D 0.001 -c black
l -t * -s 4 -d 0 -S UP -r 10000000 -D 0.001 -c black
l -t * -s 1 -d 5 -S UP -r 10000000 -D 0.001 -c black
l -t * -s 6 -d 0 -S UP -r 10000000 -D 0.001 -c black
l -t * -s 1 -d 7 -S UP -r 10000000 -D 0.001 -c black
+ -t 0.2718717 -s 4 -d 0 -p tcp -e 40 -c 0 -i 0 -a 0 -x {4.0 5.0 0 ------- null}
- -t 0.2718717 -s 4 -d 0 -p tcp -e 40 -c 0 -i 0 -a 0 -x {4.0 5.0 0 ------- null}
h -t 0.2718717 -s 4 -d 0 -p tcp -e 40 -c 0 -i 0 -a 0 -x {4.0 5.0 -1 ------- null}
r -t 0.2729037 -s 4 -d 0 -p tcp -e 40 -c 0 -i 0 -a 0 -x {4.0 5.0 0 ------- null}
+ -t 0.2729037 -s 0 -d 1 -p tcp -e 40 -c 0 -i 0 -a 0 -x {4.0 5.0 0 ------- null}
- -t 0.2729037 -s 0 -d 1 -p tcp -e 40 -c 0 -i 0 -a 0 -x {4.0 5.0 0 ------- null}
h -t 0.2729037 -s 0 -d 1 -p tcp -e 40 -c 0 -i 0 -a 0 -x {4.0 5.0 -1 ------- null}
r -t 0.2832237 -s 0 -d 1 -p tcp -e 40 -c 0 -i 0 -a 0 -x {4.0 5.0 0 ------- null}
+ -t 0.2832237 -s 1 -d 5 -p tcp -e 40 -c 0 -i 0 -a 0 -x {4.0 5.0 0 ------- null}
- -t 0.2832237 -s 1 -d 5 -p tcp -e 40 -c 0 -i 0 -a 0 -x {4.0 5.0 0 ------- null}
h -t 0.2832237 -s 1 -d 5 -p tcp -e 40 -c 0 -i 0 -a 0 -x {4.0 5.0 -1 ------- null}
r -t 0.2842557 -s 1 -d 5 -p tcp -e 40 -c 0 -i 0 -a 0 -x {4.0 5.0 0 ------- null}
+ -t 0.2842557 -s 5 -d 1 -p ack -e 40 -c 0 -i 1 -a 0 -x {5.0 4.0 0 ------- null}
- -t 0.2842557 -s 5 -d 1 -p ack -e 40 -c 0 -i 1 -a 0 -x {5.0 4.0 0 ------- null}
h -t 0.2842557 -s 5 -d 1 -p ack -e 40 -c 0 -i 1 -a 0 -x {5.0 4.0 -1 ------- null}
r -t 0.2852877 -s 5 -d 1 -p ack -e 40 -c 0 -i 1 -a 0 -x {5.0 4.0 0 ------- null}
+ -t 0.2852877 -s 1 -d 0 -p ack -e 40 -c 0 -i 1 -a 0 -x {5.0 4.0 0 ------- null}
- -t 0.2852877 -s 1 -d 0 -p ack -e 40 -c 0 -i 1 -a 0 -x {5.0 4.0 0 ------- null}
h -t 0.2852877 -s 1 -d 0 -p ack -e 40 -c 0 -i 1 -a 0 -x {5.0 4.0 -1 ------- null}
r -t 0.2956077 -s 1 -d 0 -p ack -e 40 -c 0 -i 1 -a 0 -x {5.0 4.0 0 ------- null}
+ -t 0.2956077 -s 0 -d 4 -p ack -e 40 -c 0 -i 1 -a 0 -x {5.0 4.0 0 ------- null}
- -t 0.2956077 -s 0 -d 4 -p ack -e 40 -c 0 -i 1 -a 0 -x {5.0 4.0 0 ------- null}
h -t 0.2956077 -s 0 -d 4 -p ack -e 40 -c 0 -i 1 -a 0 -x {5.0 4.0 -1 ------- null}
r -t 0.2966397 -s 0 -d 4 -p ack -e 40 -c 0 -i 1 -a 0 -x {5.0 4.0 0 ------- null}
+ -t 0.2966397 -s 4 -d 0 -p tcp -e 1040 -c 0 -i 2 -a 0 -x {4.0 5.0 1 ------- null}
- -t 0.2966397 -s 4 -d 0 -p tcp -e 1040 -c 0 -i 2 -a 0 -x {4.0 5.0 1 ------- null}
h -t 0.2966397 -s 4 -d 0 -p tcp -e 1040 -c 0 -i 2 -a 0 -x {4.0 5.0 -1 ------- null}
+ -t 0.2966397 -s 4 -d 0 -p tcp -e 1040 -c 0 -i 3 -a 0 -x {4.0 5.0 2 ------- null}
- -t 0.2974717 -s 4 -d 0 -p tcp -e 1040 -c 0 -i 3 -a 0 -x {4.0 5.0 2 ------- null}
h -t 0.2974717 -s 4 -d 0 -p tcp -e 1040 -c 0 -i 3 -a 0 -x {4.0 5.0 -1 ------- null}
r -t 0.2984717 -s 4 -d 0 -p tcp -e 1040 -c 0 -i 2 -a 0 -x {4.0 5.0 1 ------- null}
+ -t 0.2984717 -s 0 -d 1 -p tcp -e 1040 -c 0 -i 2 -a 0 -x {4.0 5.0 1 ------- null}
- -t 0.2984717 -s 0 -d 1 -p tcp -e 1040 -c 0 -i 2 -a 0 -x {4.0 5.0 1 ------- null}
h -t 0.2984717 -s 0 -d 1 -p tcp -e 1040 -c 0 -i 2 -a 0 -x {4.0 5.0 -1 ------- null}
r -t 0.2993037 -s 4 -d 0 -p tcp -e 1040 -c 0 -i 3 -a 0 -x {4.0 5.0 2 ------- null}
+ -t 0.2993037 -s 0 -d 1 -p tcp -e 1040 -c 0 -i 3 -a 0 -x {4.0 5.0 2 ------- null}
- -t 0.3067917 -s 0 -d 1 -p tcp -e 1040 -c 0 -i 3 -a 0 -x {4.0 5.0 2 ------- null}
h -t 0.3067917 -s 0 -d 1 -p tcp -e 1040 -c 0 -i 3 -a 0 -x {4.0 5.0 -1 ------- null}
r -t 0.3167917 -s 0 -d 1 -p tcp -e 1040 -c 0 -i 2 -a 0 -x {4.0 5.0 1 ------- null}
+ -t 0.3167917 -s 1 -d 5 -p tcp -e 1040 -c 0 -i 2 -a 0 -x {4.0 5.0 1 ------- null}
- -t 0.3167917 -s 1 -d 5 -p tcp -e 1040 -c 0 -i 2 -a 0 -x {4.0 5.0 1 ------- null}
h -t 0.3167917 -s 1 -d 5 -p tcp -e 1040 -c 0 -i 2 -a 0 -x {4.0 5.0 -1 ------- null}
r -t 0.3186237 -s 1 -d 5 -p tcp -e 1040 -c 0 -i 2 -a 0 -x {4.0 5.0 1 ------- null}
+ -t 0.3186237 -s 5 -d 1 -p ack -e 40 -c 0 -i 4 -a 0 -x {5.0 4.0 1 ------- null}
- -t 0.3186237 -s 5 -d 1 -p ack -e 40 -c 0 -i 4 -a 0 -x {5.0 4.0 1 ------- null}
h -t 0.3186237 -s 5 -d 1 -p ack -e 40 -c 0 -i 4 -a 0 -x {5.0 4.0 -1 ------- null}
r -t 0.3196557 -s 5 -d 1 -p ack -e 40 -c 0 -i 4 -a 0 -x {5.0 4.0 1 ------- null}
+ -t 0.3196557 -s 1 -d 0 -p ack -e 40 -c 0 -i 4 -a 0 -x {5.0 4.0 1 ------- null}
- -t 0.3196557 -s 1 -d 0 -p ack -e 40 -c 0 -i 4 -a 0 -x {5.0 4.0 1 ------- null}
h -t 0.3196557 -s 1 -d 0 -p ack -e 40 -c 0 -i 4 -a 0 -x {5.0 4.0 -1 ------- null}
r -t 0.3251117 -s 0 -d 1 -p tcp -e 1040 -c 0 -i 3 -a 0 -x {4.0 5.0 2 ------- null}
+ -t 0.3251117 -s 1 -d 5 -p tcp -e 1040 -c 0 -i 3 -a 0 -x {4.0 5.0 2 ------- null}
- -t 0.3251117 -s 1 -d 5 -p tcp -e 1040 -c 0 -i 3 -a 0 -x {4.0 5.0 2 ------- null}
h -t 0.3251117 -s 1 -d 5 -p tcp -e 1040 -c 0 -i 3 -a 0 -x {4.0 5.0 -1 ------- null}
r -t 0.3269437 -s 1 -d 5 -p tcp -e 1040 -c 0 -i 3 -a 0 -x {4.0 5.0 2 ------- null}
+ -t 0.3269437 -s 5 -d 1 -p ack -e 40 -c 0 -i 5 -a 0 -x {5.0 4.0 2 ------- null}
- -t 0.3269437 -s 5 -d 1 -p ack -e 40 -c 0 -i 5 -a 0 -x {5.0 4.0 2 ------- null}
h -t 0.3269437 -s 5 -d 1 -p ack -e 40 -c 0 -i 5 -a 0 -x {5.0 4.0 -1 ------- null}
r -t 0.3279757 -s 5 -d 1 -p ack -e 40 -c 0 -i 5 -a 0 -x {5.0 4.0 2 ------- null}
+ -t 0.3279757 -s 1 -d 0 -p ack -e 40 -c 0 -i 5 -a 0 -x {5.0 4.0 2 ------- null}
- -t 0.3279757 -s 1 -d 0 -p ack -e 40 -c 0 -i 5 -a 0 -x {5.0 4.0 2 ------- null}
h -t 0.3279757 -s 1 -d 0 -p ack -e 40 -c 0 -i 5 -a 0 -x {5.0 4.0 -1 ------- null}
r -t 0.3299757 -s 1 -d 0 -p ack -e 40 -c 0 -i 4 -a 0 -x {5.0 4.0 1 ------- null}
+ -t 0.3299757 -s 0 -d 4 -p ack -e 40 -c 0 -i 4 -a 0 -x {5.0 4.0 1 ------- null}
- -t 0.3299757 -s 0 -d 4 -p ack -e 40 -c 0 -i 4 -a 0 -x {5.0 4.0 1 ------- null}
h -t 0.3299757 -s 0 -d 4 -p ack -e 40 -c 0 -i 4 -a 0 -x {5.0 4.0 -1 ------- null}
r -t 0.3310077 -s 0 -d 4 -p ack -e 40 -c 0 -i 4 -a 0 -x {5.0 4.0 1 ------- null}
+ -t 0.3310077 -s 4 -d 0 -p tcp -e 1040 -c 0 -i 6 -a 0 -x {4.0 5.0 3 ------- null}
- -t 0.3310077 -s 4 -d 0 -p tcp -e 1040 -c 0 -i 6 -a 0 -x {4.0 5.0 3 ------- null}
h -t 0.3310077 -s 4 -d 0 -p tcp -e 1040 -c 0 -i 6 -a 0 -x {4.0 5.0 -1 ------- null}
+ -t 0.3310077 -s 4 -d 0 -p tcp -e 1040 -c 0 -i 7 -a 0 -x {4.0 5.0 4 ------- null}
- -t 0.3318397 -s 4 -d 0 -p tcp -e 1040 -c 0 -i 7 -a 0 -x {4.0 5.0 4 ------- null}
h -t 0.3318397 -s 4 -d 0 -p tcp -e 1040 -c 0 -i 7 -a 0 -x {4.0 5.0 -1 ------- null}
r -t 0.3328397 -s 4 -d 0 -p tcp -e 1040 -c 0 -i 6 -a 0 -x {4.0 5.0 3 ------- null}
+ -t 0.3328397 -s 0 -d 1 -p tcp -e 1040 -c 0 -i 6 -a 0 -x {4.0 5.0 3 ------- null}
- -t 0.3328397 -s 0 -d 1 -p tcp -e 1040 -c 0 -i 6 -a 0 -x {4.0 5.0 3 ------- null}
h -t 0.3328397 -s 0 -d 1 -p tcp -e 1040 -c 0 -i 6 -a 0 -x {4.0 5.0 -1 ------- null}
r -t 0.3336717 -s 4 -d 0 -p tcp -e 1040 -c 0 -i 7 -a 0 -x {4.0 5.0 4 ------- null}
+ -t 0.3336717 -s 0 -d 1 -p tcp -e 1040 -c 0 -i 7 -a 0 -x {4.0 5.0 4 ------- null}
r -t 0.3382957 -s 1 -d 0 -p ack -e 40 -c 0 -i 5 -a 0 -x {5.0 4.0 2 ------- null}
+ -t 0.3382957 -s 0 -d 4 -p ack -e 40 -c 0 -i 5 -a 0 -x {5.0 4.0 2 ------- null}
- -t 0.3382957 -s 0 -d 4 -p ack -e 40 -c 0 -i 5 -a 0 -x {5.0 4.0 2 ------- null}
h -t 0.3382957 -s 0 -d 4 -p ack -e 40 -c 0 -i 5 -a 0 -x {5.0 4.0 -1 ------- null}
r -t 0.3393277 -s 0 -d 4 -p ack -e 40 -c 0 -i 5 -a 0 -x {5.0 4.0 2 ------- null}
+ -t 0.3393277 -s 4 -d 0 -p tcp -e 1040 -c 0 -i 8 -a 0 -x {4.0 5.0 5 ------- null}
- -t 0.3393277 -s 4 -d 0 -p tcp -e 1040 -c 0 -i 8 -a 0 -x {4.0 5.0 5 ------- null}
h -t 0.3393277 -s 4 -d 0 -p tcp -e 1040 -c 0 -i 8 -a 0 -x {4.0 5.0 -1 ------- null}
+ -t 0.3393277 -s 4 -d 0 -p tcp -e 1040 -c 0 -i 9 -a 0 -x {4.0 5.0 6 ------- null}
- -t 0.3401597 -s 4 -d 0 -p tcp -e 1040 -c 0 -i 9 -a 0 -x {4.0 5.0 6 ------- null}
h -t 0.3401597 -s 4 -d 0 -p tcp -e 1040 -c 0 -i 9 -a 0 -x {4.0 5.0 -1 ------- null}
- -t 0.3411597 -s 0 -d 1 -p tcp -e 1040 -c 0 -i 7 -a 0 -x {4.0 5.0 4 ------- null}
h -t 0.3411597 -s 0 -d 1 -p tcp -e 1040 -c 0 -i 7 -a 0 -x {4.0 5.0 -1 ------- null}
r -t 0.3411597 -s 4 -d 0 -p tcp -e 1040 -c 0 -i 8 -a 0 -x {4.0 5.0 5 ------- null}
+ -t 0.3411597 -s 0 -d 1 -p tcp -e 1040 -c 0 -i 8 -a 0 -x {4.0 5.0 5 ------- null}
r -t 0.3419917 -s 4 -d 0 -p tcp -e 1040 -c 0 -i 9 -a 0 -x {4.0 5.0 6 ------- null}
+ -t 0.3419917 -s 0 -d 1 -p tcp -e 1040 -c 0 -i 9 -a 0 -x {4.0 5.0 6 ------- null}
- -t 0.3494797 -s 0 -d 1 -p tcp -e 1040 -c 0 -i 8 -a 0 -x {4.0 5.0 5 ------- null}
h -t 0.3494797 -s 0 -d 1 -p tcp -e 1040 -c 0 -i 8 -a 0 -x {4.0 5.0 -1 ------- null}
r -t 0.3511597 -s 0 -d 1 -p tcp -e 1040 -c 0 -i 6 -a 0 -x {4.0 5.0 3 ------- null}
+ -t 0.3511597 -s 1 -d 5 -p tcp -e 1040 -c 0 -i 6 -a 0 -x {4.0 5.0 3 ------- null}
- -t 0.3511597 -s 1 -d 5 -p tcp -e 1040 -c 0 -i 6 -a 0 -x {4.0 5.0 3 ------- null}
h -t 0.3511597 -s 1 -d 5 -p tcp -e 1040 -c 0 -i 6 -a 0 -x {4.0 5.0 -1 ------- null}
r -t 0.3529917 -s 1 -d 5 -p tcp -e 1040 -c 0 -i 6 -a 0 -x {4.0 5.0 3 ------- null}
+ -t 0.3529917 -s 5 -d 1 -p ack -e 40 -c 0 -i 10 -a 0 -x {5.0 4.0 3 ------- null}
- -t 0.3529917 -s 5 -d 1 -p ack -e 40 -c 0 -i 10 -a 0 -x {5.0 4.0 3 ------- null}
h -t 0.3529917 -s 5 -d 1 -p ack -e 40 -c 0 -i 10 -a 0 -x {5.0 4.0 -1 ------- null}
r -t 0.3540237 -s 5 -d 1 -p ack -e 40 -c 0 -i 10 -a 0 -x {5.0 4.0 3 ------- null}
+ -t 0.3540237 -s 1 -d 0 -p ack -e 40 -c 0 -i 10 -a 0 -x {5.0 4.0 3 ------- null}
- -t 0.3540237 -s 1 -d 0 -p ack -e 40 -c 0 -i 10 -a 0 -x {5.0 4.0 3 ------- null}
h -t 0.3540237 -s 1 -d 0 -p ack -e 40 -c 0 -i 10 -a 0 -x {5.0 4.0 -1 ------- null}
- -t 0.3577997 -s 0 -d 1 -p tcp -e 1040 -c 0 -i 9 -a 0 -x {4.0 5.0 6 ------- null}
h -t 0.3577997 -s 0 -d 1 -p tcp -e 1040 -c 0 -i 9 -a 0 -x {4.0 5.0 -1 ------- null}
r -t 0.3594797 -s 0 -d 1 -p tcp -e 1040 -c 0 -i 7 -a 0 -x {4.0 5.0 4 ------- null}
+ -t 0.3594797 -s 1 -d 5 -p tcp -e 1040 -c 0 -i 7 -a 0 -x {4.0 5.0 4 ------- null}
- -t 0.3594797 -s 1 -d 5 -p tcp -e 1040 -c 0 -i 7 -a 0 -x {4.0 5.0 4 ------- null}
h -t 0.3594797 -s 1 -d 5 -p tcp -e 1040 -c 0 -i 7 -a 0 -x {4.0 5.0 -1 ------- null}
r -t 0.3613117 -s 1 -d 5 -p tcp -e 1040 -c 0 -i 7 -a 0 -x {4.0 5.0 4 ------- null}
+ -t 0.3613117 -s 5 -d 1 -p ack -e 40 -c 0 -i 11 -a 0 -x {5.0 4.0 4 ------- null}
- -t 0.3613117 -s 5 -d 1 -p ack -e 40 -c 0 -i 11 -a 0 -x {5.0 4.0 4 ------- null}
h -t 0.3613117 -s 5 -d 1 -p ack -e 40 -c 0 -i 11 -a 0 -x {5.0 4.0 -1 ------- null}
r -t 0.3623437 -s 5 -d 1 -p ack -e 40 -c 0 -i 11 -a 0 -x {5.0 4.0 4 ------- null}
+ -t 0.3623437 -s 1 -d 0 -p ack -e 40 -c 0 -i 11 -a 0 -x {5.0 4.0 4 ------- null}
- -t 0.3623437 -s 1 -d 0 -p ack -e 40 -c 0 -i 11 -a 0 -x {5.0 4.0 4 ------- null}
h -t 0.3623437 -s 1 -d 0 -p ack -e 40 -c 0 -i 11 -a 0 -x {5.0 4.0 -1 ------- null}
r -t 0.3643437 -s 1 -d 0 -p ack -e 40 -c 0 -i 10 -a 0 -x {5.0 4.0 3 ------- null}
+ -t 0.3643437 -s 0 -d 4 -p ack -e 40 -c 0 -i 10 -a 0 -x {5.0 4.0 3 ------- null}
- -t 0.3643437 -s 0 -d 4 -p ack -e 40 -c 0 -i 10 -a 0 -x {5.0 4.0 3 ------- null}
h -t 0.3643437 -s 0 -d 4 -p ack -e 40 -c 0 -i 10 -a 0 -x {5.0 4.0 -1 ------- null}
r -t 0.3653757 -s 0 -d 4 -p ack -e 40 -c 0 -i 10 -a 0 -x {5.0 4.0 3 ------- null}
+ -t 0.3653757 -s 4 -d 0 -p tcp -e 1040 -c 0 -i 12 -a 0 -x {4.0 5.0 7 ------- null}
- -t 0.3653757 -s 4 -d 0 -p tcp -e 1040 -c 0 -i 12 -a 0 -x {4.0 5.0 7 ------- null}
h -t 0.3653757 -s 4 -d 0 -p tcp -e 1040 -c 0 -i 12 -a 0 -x {4.0 5.0 -1 ------- null}
+ -t 0.3653757 -s 4 -d 0 -p tcp -e 1040 -c 0 -i 13 -a 0 -x {4.0 5.0 8 ------- null}
- -t 0.3662077 -s 4 -d 0 -p tcp -e 1040 -c 0 -i 13 -a 0 -x {4.0 5.0 8 ------- null}
h -t 0.3662077 -s 4 -d 0 -p tcp -e 1040 -c 0 -i 13 -a 0 -x {4.0 5.0 -1 ------- null}
r -t 0.3672077 -s 4 -d 0 -p tcp -e 1040 -c 0 -i 12 -a 0 -x {4.0 5.0 7 ------- null}
+ -t 0.3672077 -s 0 -d 1 -p tcp -e 1040 -c 0 -i 12 -a 0 -x {4.0 5.0 7 ------- null}
- -t 0.3672077 -s 0 -d 1 -p tcp -e 1040 -c 0 -i 12 -a 0 -x {4.0 5.0 7 ------- null}
h -t 0.3672077 -s 0 -d 1 -p tcp -e 1040 -c 0 -i 12 -a 0 -x {4.0 5.0 -1 ------- null}
r -t 0.3677997 -s 0 -d 1 -p tcp -e 1040 -c 0 -i 8 -a 0 -x {4.0 5.0 5 ------- null}
+ -t 0.3677997 -s 1 -d 5 -p tcp -e 1040 -c 0 -i 8 -a 0 -x {4.0 5.0 5 ------- null}
- -t 0.3677997 -s 1 -d 5 -p tcp -e 1040 -c 0 -i 8 -a 0 -x {4.0 5.0 5 ------- null}
h -t 0.3677997 -s 1 -d 5 -p tcp -e 1040 -c 0 -i 8 -a 0 -x {4.0 5.0 -1 ------- null}
r -t 0.3680397 -s 4 -d 0 -p tcp -e 1040 -c 0 -i 13 -a 0 -x {4.0 5.0 8 ------- null}
+ -t 0.3680397 -s 0 -d 1 -p tcp -e 1040 -c 0 -i 13 -a 0 -x {4.0 5.0 8 ------- null}
r -t 0.3696317 -s 1 -d 5 -p tcp -e 1040 -c 0 -i 8 -a 0 -x {4.0 5.0 5 ------- null}
+ -t 0.3696317 -s 5 -d 1 -p ack -e 40 -c 0 -i 14 -a 0 -x {5.0 4.0 5 ------- null}
- -t 0.3696317 -s 5 -d 1 -p ack -e 40 -c 0 -i 14 -a 0 -x {5.0 4.0 5 ------- null}
h -t 0.3696317 -s 5 -d 1 -p ack -e 40 -c 0 -i 14 -a 0 -x {5.0 4.0 -1 ------- null}
r -t 0.3706637 -s 5 -d 1 -p ack -e 40 -c 0 -i 14 -a 0 -x {5.0 4.0 5 ------- null}
+ -t 0.3706637 -s 1 -d 0 -p ack -e 40 -c 0 -i 14 -a 0 -x {5.0 4.0 5 ------- null}
- -t 0.3706637 -s 1 -d 0 -p ack -e 40 -c 0 -i 14 -a 0 -x {5.0 4.0 5 ------- null}
h -t 0.3706637 -s 1 -d 0 -p ack -e 40 -c 0 -i 14 -a 0 -x {5.0 4.0 -1 ------- null}
r -t 0.3726637 -s 1 -d 0 -p ack -e 40 -c 0 -i 11 -a 0 -x {5.0 4.0 4 ------- null}
+ -t 0.3726637 -s 0 -d 4 -p ack -e 40 -c 0 -i 11 -a 0 -x {5.0 4.0 4 ------- null}
- -t 0.3726637 -s 0 -d 4 -p ack -e 40 -c 0 -i 11 -a 0 -x {5.0 4.0 4 ------- null}
h -t 0.3726637 -s 0 -d 4 -p ack -e 40 -c 0 -i 11 -a 0 -x {5.0 4.0 -1 ------- null}
r -t 0.3736957 -s 0 -d 4 -p ack -e 40 -c 0 -i 11 -a 0 -x {5.0 4.0 4 ------- null}
+ -t 0.3736957 -s 4 -d 0 -p tcp -e 1040 -c 0 -i 15 -a 0 -x {4.0 5.0 9 ------- null}
- -t 0.3736957 -s 4 -d 0 -p tcp -e 1040 -c 0 -i 15 -a 0 -x {4.0 5.0 9 ------- null}
h -t 0.3736957 -s 4 -d 0 -p tcp -e 1040 -c 0 -i 15 -a 0 -x {4.0 5.0 -1 ------- null}
+ -t 0.3736957 -s 4 -d 0 -p tcp -e 1040 -c 0 -i 16 -a 0 -x {4.0 5.0 10 ------- null}
- -t 0.3745277 -s 4 -d 0 -p tcp -e 1040 -c 0 -i 16 -a 0 -x {4.0 5.0 10 ------- null}
h -t 0.3745277 -s 4 -d 0 -p tcp -e 1040 -c 0 -i 16 -a 0 -x {4.0 5.0 -1 ------- null}
- -t 0.3755277 -s 0 -d 1 -p tcp -e 1040 -c 0 -i 13 -a 0 -x {4.0 5.0 8 ------- null}
h -t 0.3755277 -s 0 -d 1 -p tcp -e 1040 -c 0 -i 13 -a 0 -x {4.0 5.0 -1 ------- null}
r -t 0.3755277 -s 4 -d 0 -p tcp -e 1040 -c 0 -i 15 -a 0 -x {4.0 5.0 9 ------- null}
+ -t 0.3755277 -s 0 -d 1 -p tcp -e 1040 -c 0 -i 15 -a 0 -x {4.0 5.0 9 ------- null}
r -t 0.3761197 -s 0 -d 1 -p tcp -e 1040 -c 0 -i 9 -a 0 -x {4.0 5.0 6 ------- null}
+ -t 0.3761197 -s 1 -d 5 -p tcp -e 1040 -c 0 -i 9 -a 0 -x {4.0 5.0 6 ------- null}
- -t 0.3761197 -s 1 -d 5 -p tcp -e 1040 -c 0 -i 9 -a 0 -x {4.0 5.0 6 ------- null}
h -t 0.3761197 -s 1 -d 5 -p tcp -e 1040 -c 0 -i 9 -a 0 -x {4.0 5.0 -1 ------- null}
r -t 0.3763597 -s 4 -d 0 -p tcp -e 1040 -c 0 -i 16 -a 0 -x {4.0 5.0 10 ------- null}
+ -t 0.3763597 -s 0 -d 1 -p tcp -e 1040 -c 0 -i 16 -a 0 -x {4.0 5.0 10 ------- null}
r -t 0.3779517 -s 1 -d 5 -p tcp -e 1040 -c 0 -i 9 -a 0 -x {4.0 5.0 6 ------- null}
+ -t 0.3779517 -s 5 -d 1 -p ack -e 40 -c 0 -i 17 -a 0 -x {5.0 4.0 6 ------- null}
- -t 0.3779517 -s 5 -d 1 -p ack -e 40 -c 0 -i 17 -a 0 -x {5.0 4.0 6 ------- null}
h -t 0.3779517 -s 5 -d 1 -p ack -e 40 -c 0 -i 17 -a 0 -x {5.0 4.0 -1 ------- null}
r -t 0.3789837 -s 5 -d 1 -p ack -e 40 -c 0 -i 17 -a 0 -x {5.0 4.0 6 ------- null}
+ -t 0.3789837 -s 1 -d 0 -p ack -e 40 -c 0 -i 17 -a 0 -x {5.0 4.0 6 ------- null}
- -t 0.3789837 -s 1 -d 0 -p ack -e 40 -c 0 -i 17 -a 0 -x {5.0 4.0 6 ------- null}
h -t 0.3789837 -s 1 -d 0 -p ack -e 40 -c 0 -i 17 -a 0 -x {5.0 4.0 -1 ------- null}
r -t 0.3809837 -s 1 -d 0 -p ack -e 40 -c 0 -i 14 -a 0 -x {5.0 4.0 5 ------- null}
+ -t 0.3809837 -s 0 -d 4 -p ack -e 40 -c 0 -i 14 -a 0 -x {5.0 4.0 5 ------- null}
- -t 0.3809837 -s 0 -d 4 -p ack -e 40 -c 0 -i 14 -a 0 -x {5.0 4.0 5 ------- null}
h -t 0.3809837 -s 0 -d 4 -p ack -e 40 -c 0 -i 14 -a 0 -x {5.0 4.0 -1 ------- null}
r -t 0.3820157 -s 0 -d 4 -p ack -e 40 -c 0 -i 14 -a 0 -x {5.0 4.0 5 ------- null}
+ -t 0.3820157 -s 4 -d 0 -p tcp -e 1040 -c 0 -i 18 -a 0 -x {4.0 5.0 11 ------- null}
- -t 0.3820157 -s 4 -d 0 -p tcp -e 1040 -c 0 -i 18 -a 0 -x {4.0 5.0 11 ------- null}
h -t 0.3820157 -s 4 -d 0 -p tcp -e 1040 -c 0 -i 18 -a 0 -x {4.0 5.0 -1 ------- null}
+ -t 0.3820157 -s 4 -d 0 -p tcp -e 1040 -c 0 -i 19 -a 0 -x {4.0 5.0 12 ------- null}
- -t 0.3828477 -s 4 -d 0 -p tcp -e 1040 -c 0 -i 19 -a 0 -x {4.0 5.0 12 ------- null}
h -t 0.3828477 -s 4 -d 0 -p tcp -e 1040 -c 0 -i 19 -a 0 -x {4.0 5.0 -1 ------- null}
- -t 0.3838477 -s 0 -d 1 -p tcp -e 1040 -c 0 -i 15 -a 0 -x {4.0 5.0 9 ------- null}
h -t 0.3838477 -s 0 -d 1 -p tcp -e 1040 -c 0 -i 15 -a 0 -x {4.0 5.0 -1 ------- null}
r -t 0.3838477 -s 4 -d 0 -p tcp -e 1040 -c 0 -i 18 -a 0 -x {4.0 5.0 11 ------- null}
+ -t 0.3838477 -s 0 -d 1 -p tcp -e 1040 -c 0 -i 18 -a 0 -x {4.0 5.0 11 ------- null}
r -t 0.3846797 -s 4 -d 0 -p tcp -e 1040 -c 0 -i 19 -a 0 -x {4.0 5.0 12 ------- null}
+ -t 0.3846797 -s 0 -d 1 -p tcp -e 1040 -c 0 -i 19 -a 0 -x {4.0 5.0 12 ------- null}
r -t 0.3855277 -s 0 -d 1 -p tcp -e 1040 -c 0 -i 12 -a 0 -x {4.0 5.0 7 ------- null}
+ -t 0.3855277 -s 1 -d 5 -p tcp -e 1040 -c 0 -i 12 -a 0 -x {4.0 5.0 7 ------- null}
- -t 0.3855277 -s 1 -d 5 -p tcp -e 1040 -c 0 -i 12 -a 0 -x {4.0 5.0 7 ------- null}
h -t 0.3855277 -s 1 -d 5 -p tcp -e 1040 -c 0 -i 12 -a 0 -x {4.0 5.0 -1 ------- null}
r -t 0.3873597 -s 1 -d 5 -p tcp -e 1040 -c 0 -i 12 -a 0 -x {4.0 5.0 7 ------- null}
+ -t 0.3873597 -s 5 -d 1 -p ack -e 40 -c 0 -i 20 -a 0 -x {5.0 4.0 7 ------- null}
- -t 0.3873597 -s 5 -d 1 -p ack -e 40 -c 0 -i 20 -a 0 -x {5.0 4.0 7 ------- null}
h -t 0.3873597 -s 5 -d 1 -p ack -e 40 -c 0 -i 20 -a 0 -x {5.0 4.0 -1 ------- null}
r -t 0.3883917 -s 5 -d 1 -p ack -e 40 -c 0 -i 20 -a 0 -x {5.0 4.0 7 ------- null}
+ -t 0.3883917 -s 1 -d 0 -p ack -e 40 -c 0 -i 20 -a 0 -x {5.0 4.0 7 ------- null}
- -t 0.3883917 -s 1 -d 0 -p ack -e 40 -c 0 -i 20 -a 0 -x {5.0 4.0 7 ------- null}
h -t 0.3883917 -s 1 -d 0 -p ack -e 40 -c 0 -i 20 -a 0 -x {5.0 4.0 -1 ------- null}
r -t 0.3893037 -s 1 -d 0 -p ack -e 40 -c 0 -i 17 -a 0 -x {5.0 4.0 6 ------- null}
+ -t 0.3893037 -s 0 -d 4 -p ack -e 40 -c 0 -i 17 -a 0 -x {5.0 4.0 6 ------- null}
- -t 0.3893037 -s 0 -d 4 -p ack -e 40 -c 0 -i 17 -a 0 -x {5.0 4.0 6 ------- null}
h -t 0.3893037 -s 0 -d 4 -p ack -e 40 -c 0 -i 17 -a 0 -x {5.0 4.0 -1 ------- null}
r -t 0.3903357 -s 0 -d 4 -p ack -e 40 -c 0 -i 17 -a 0 -x {5.0 4.0 6 ------- null}
+ -t 0.3903357 -s 4 -d 0 -p tcp -e 1040 -c 0 -i 21 -a 0 -x {4.0 5.0 13 ------- null}
- -t 0.3903357 -s 4 -d 0 -p tcp -e 1040 -c 0 -i 21 -a 0 -x {4.0 5.0 13 ------- null}
h -t 0.3903357 -s 4 -d 0 -p tcp -e 1040 -c 0 -i 21 -a 0 -x {4.0 5.0 -1 ------- null}
+ -t 0.3903357 -s 4 -d 0 -p tcp -e 1040 -c 0 -i 22 -a 0 -x {4.0 5.0 14 ------- null}
- -t 0.3911677 -s 4 -d 0 -p tcp -e 1040 -c 0 -i 22 -a 0 -x {4.0 5.0 14 ------- null}
h -t 0.3911677 -s 4 -d 0 -p tcp -e 1040 -c 0 -i 22 -a 0 -x {4.0 5.0 -1 ------- null}
- -t 0.3921677 -s 0 -d 1 -p tcp -e 1040 -c 0 -i 16 -a 0 -x {4.0 5.0 10 ------- null}
h -t 0.3921677 -s 0 -d 1 -p tcp -e 1040 -c 0 -i 16 -a 0 -x {4.0 5.0 -1 ------- null}
r -t 0.3921677 -s 4 -d 0 -p tcp -e 1040 -c 0 -i 21 -a 0 -x {4.0 5.0 13 ------- null}
+ -t 0.3921677 -s 0 -d 1 -p tcp -e 1040 -c 0 -i 21 -a 0 -x {4.0 5.0 13 ------- null}
r -t 0.3929997 -s 4 -d 0 -p tcp -e 1040 -c 0 -i 22 -a 0 -x {4.0 5.0 14 ------- null}
+ -t 0.3929997 -s 0 -d 1 -p tcp -e 1040 -c 0 -i 22 -a 0 -x {4.0 5.0 14 ------- null}
r -t 0.3938477 -s 0 -d 1 -p tcp -e 1040 -c 0 -i 13 -a 0 -x {4.0 5.0 8 ------- null}
+ -t 0.3938477 -s 1 -d 5 -p tcp -e 1040 -c 0 -i 13 -a 0 -x {4.0 5.0 8 ------- null}
- -t 0.3938477 -s 1 -d 5 -p tcp -e 1040 -c 0 -i 13 -a 0 -x {4.0 5.0 8 ------- null}
h -t 0.3938477 -s 1 -d 5 -p tcp -e 1040 -c 0 -i 13 -a 0 -x {4.0 5.0 -1 ------- null}
r -t 0.3956797 -s 1 -d 5 -p tcp -e 1040 -c 0 -i 13 -a 0 -x {4.0 5.0 8 ------- null}
+ -t 0.3956797 -s 5 -d 1 -p ack -e 40 -c 0 -i 23 -a 0 -x {5.0 4.0 8 ------- null}
- -t 0.3956797 -s 5 -d 1 -p ack -e 40 -c 0 -i 23 -a 0 -x {5.0 4.0 8 ------- null}
h -t 0.3956797 -s 5 -d 1 -p ack -e 40 -c 0 -i 23 -a 0 -x {5.0 4.0 -1 ------- null}
r -t 0.3967117 -s 5 -d 1 -p ack -e 40 -c 0 -i 23 -a 0 -x {5.0 4.0 8 ------- null}
+ -t 0.3967117 -s 1 -d 0 -p ack -e 40 -c 0 -i 23 -a 0 -x {5.0 4.0 8 ------- null}
- -t 0.3967117 -s 1 -d 0 -p ack -e 40 -c 0 -i 23 -a 0 -x {5.0 4.0 8 ------- null}
h -t 0.3967117 -s 1 -d 0 -p ack -e 40 -c 0 -i 23 -a 0 -x {5.0 4.0 -1 ------- null}
r -t 0.3987117 -s 1 -d 0 -p ack -e 40 -c 0 -i 20 -a 0 -x {5.0 4.0 7 ------- null}
+ -t 0.3987117 -s 0 -d 4 -p ack -e 40 -c 0 -i 20 -a 0 -x {5.0 4.0 7 ------- null}
- -t 0.3987117 -s 0 -d 4 -p ack -e 40 -c 0 -i 20 -a 0 -x {5.0 4.0 7 ------- null}
h -t 0.3987117 -s 0 -d 4 -p ack -e 40 -c 0 -i 20 -a 0 -x {5.0 4.0 -1 ------- null}
r -t 0.3997437 -s 0 -d 4 -p ack -e 40 -c 0 -i 20 -a 0 -x {5.0 4.0 7 ------- null}
+ -t 0.3997437 -s 4 -d 0 -p tcp -e 1040 -c 0 -i 24 -a 0 -x {4.0 5.0 15 ------- null}
- -t 0.3997437 -s 4 -d 0 -p tcp -e 1040 -c 0 -i 24 -a 0 -x {4.0 5.0 15 ------- null}
h -t 0.3997437 -s 4 -d 0 -p tcp -e 1040 -c 0 -i 24 -a 0 -x {4.0 5.0 -1 ------- null}
+ -t 0.3997437 -s 4 -d 0 -p tcp -e 1040 -c 0 -i 25 -a 0 -x {4.0 5.0 16 ------- null}
- -t 0.4004877 -s 0 -d 1 -p tcp -e 1040 -c 0 -i 18 -a 0 -x {4.0 5.0 11 ------- null}
h -t 0.4004877 -s 0 -d 1 -p tcp -e 1040 -c 0 -i 18 -a 0 -x {4.0 5.0 -1 ------- null}
- -t 0.4005757 -s 4 -d 0 -p tcp -e 1040 -c 0 -i 25 -a 0 -x {4.0 5.0 16 ------- null}
h -t 0.4005757 -s 4 -d 0 -p tcp -e 1040 -c 0 -i 25 -a 0 -x {4.0 5.0 -1 ------- null}
r -t 0.4015757 -s 4 -d 0 -p tcp -e 1040 -c 0 -i 24 -a 0 -x {4.0 5.0 15 ------- null}
+ -t 0.4015757 -s 0 -d 1 -p tcp -e 1040 -c 0 -i 24 -a 0 -x {4.0 5.0 15 ------- null}
r -t 0.4021677 -s 0 -d 1 -p tcp -e 1040 -c 0 -i 15 -a 0 -x {4.0 5.0 9 ------- null}
+ -t 0.4021677 -s 1 -d 5 -p tcp -e 1040 -c 0 -i 15 -a 0 -x {4.0 5.0 9 ------- null}
- -t 0.4021677 -s 1 -d 5 -p tcp -e 1040 -c 0 -i 15 -a 0 -x {4.0 5.0 9 ------- null}
h -t 0.4021677 -s 1 -d 5 -p tcp -e 1040 -c 0 -i 15 -a 0 -x {4.0 5.0 -1 ------- null}
r -t 0.4024077 -s 4 -d 0 -p tcp -e 1040 -c 0 -i 25 -a 0 -x {4.0 5.0 16 ------- null}
+ -t 0.4024077 -s 0 -d 1 -p tcp -e 1040 -c 0 -i 25 -a 0 -x {4.0 5.0 16 ------- null}
r -t 0.4039997 -s 1 -d 5 -p tcp -e 1040 -c 0 -i 15 -a 0 -x {4.0 5.0 9 ------- null}
+ -t 0.4039997 -s 5 -d 1 -p ack -e 40 -c 0 -i 26 -a 0 -x {5.0 4.0 9 ------- null}
- -t 0.4039997 -s 5 -d 1 -p ack -e 40 -c 0 -i 26 -a 0 -x {5.0 4.0 9 ------- null}
h -t 0.4039997 -s 5 -d 1 -p ack -e 40 -c 0 -i 26 -a 0 -x {5.0 4.0 -1 ------- null}
r -t 0.4050317 -s 5 -d 1 -p ack -e 40 -c 0 -i 26 -a 0 -x {5.0 4.0 9 ------- null}
+ -t 0.4050317 -s 1 -d 0 -p ack -e 40 -c 0 -i 26 -a 0 -x {5.0 4.0 9 ------- null}
- -t 0.4050317 -s 1 -d 0 -p ack -e 40 -c 0 -i 26 -a 0 -x {5.0 4.0 9 ------- null}
h -t 0.4050317 -s 1 -d 0 -p ack -e 40 -c 0 -i 26 -a 0 -x {5.0 4.0 -1 ------- null}
r -t 0.4070317 -s 1 -d 0 -p ack -e 40 -c 0 -i 23 -a 0 -x {5.0 4.0 8 ------- null}
+ -t 0.4070317 -s 0 -d 4 -p ack -e 40 -c 0 -i 23 -a 0 -x {5.0 4.0 8 ------- null}
- -t 0.4070317 -s 0 -d 4 -p ack -e 40 -c 0 -i 23 -a 0 -x {5.0 4.0 8 ------- null}
h -t 0.4070317 -s 0 -d 4 -p ack -e 40 -c 0 -i 23 -a 0 -x {5.0 4.0 -1 ------- null}
r -t 0.4080637 -s 0 -d 4 -p ack -e 40 -c 0 -i 23 -a 0 -x {5.0 4.0 8 ------- null}
+ -t 0.4080637 -s 4 -d 0 -p tcp -e 1040 -c 0 -i 27 -a 0 -x {4.0 5.0 17 ------- null}
- -t 0.4080637 -s 4 -d 0 -p tcp -e 1040 -c 0 -i 27 -a 0 -x {4.0 5.0 17 ------- null}
h -t 0.4080637 -s 4 -d 0 -p tcp -e 1040 -c 0 -i 27 -a 0 -x {4.0 5.0 -1 ------- null}
+ -t 0.4080637 -s 4 -d 0 -p tcp -e 1040 -c 0 -i 28 -a 0 -x {4.0 5.0 18 ------- null}
- -t 0.4088077 -s 0 -d 1 -p tcp -e 1040 -c 0 -i 19 -a 0 -x {4.0 5.0 12 ------- null}
h -t 0.4088077 -s 0 -d 1 -p tcp -e 1040 -c 0 -i 19 -a 0 -x {4.0 5.0 -1 ------- null}
- -t 0.4088957 -s 4 -d 0 -p tcp -e 1040 -c 0 -i 28 -a 0 -x {4.0 5.0 18 ------- null}
h -t 0.4088957 -s 4 -d 0 -p tcp -e 1040 -c 0 -i 28 -a 0 -x {4.0 5.0 -1 ------- null}
r -t 0.4098957 -s 4 -d 0 -p tcp -e 1040 -c 0 -i 27 -a 0 -x {4.0 5.0 17 ------- null}
+ -t 0.4098957 -s 0 -d 1 -p tcp -e 1040 -c 0 -i 27 -a 0 -x {4.0 5.0 17 ------- null}
r -t 0.4104877 -s 0 -d 1 -p tcp -e 1040 -c 0 -i 16 -a 0 -x {4.0 5.0 10 ------- null}
+ -t 0.4104877 -s 1 -d 5 -p tcp -e 1040 -c 0 -i 16 -a 0 -x {4.0 5.0 10 ------- null}
- -t 0.4104877 -s 1 -d 5 -p tcp -e 1040 -c 0 -i 16 -a 0 -x {4.0 5.0 10 ------- null}
h -t 0.4104877 -s 1 -d 5 -p tcp -e 1040 -c 0 -i 16 -a 0 -x {4.0 5.0 -1 ------- null}
r -t 0.4107277 -s 4 -d 0 -p tcp -e 1040 -c 0 -i 28 -a 0 -x {4.0 5.0 18 ------- null}
+ -t 0.4107277 -s 0 -d 1 -p tcp -e 1040 -c 0 -i 28 -a 0 -x {4.0 5.0 18 ------- null}
r -t 0.4123197 -s 1 -d 5 -p tcp -e 1040 -c 0 -i 16 -a 0 -x {4.0 5.0 10 ------- null}
+ -t 0.4123197 -s 5 -d 1 -p ack -e 40 -c 0 -i 29 -a 0 -x {5.0 4.0 10 ------- null}
- -t 0.4123197 -s 5 -d 1 -p ack -e 40 -c 0 -i 29 -a 0 -x {5.0 4.0 10 ------- null}
h -t 0.4123197 -s 5 -d 1 -p ack -e 40 -c 0 -i 29 -a 0 -x {5.0 4.0 -1 ------- null}
r -t 0.4133517 -s 5 -d 1 -p ack -e 40 -c 0 -i 29 -a 0 -x {5.0 4.0 10 ------- null}
+ -t 0.4133517 -s 1 -d 0 -p ack -e 40 -c 0 -i 29 -a 0 -x {5.0 4.0 10 ------- null}
- -t 0.4133517 -s 1 -d 0 -p ack -e 40 -c 0 -i 29 -a 0 -x {5.0 4.0 10 ------- null}
h -t 0.4133517 -s 1 -d 0 -p ack -e 40 -c 0 -i 29 -a 0 -x {5.0 4.0 -1 ------- null}
r -t 0.4153517 -s 1 -d 0 -p ack -e 40 -c 0 -i 26 -a 0 -x {5.0 4.0 9 ------- null}
+ -t 0.4153517 -s 0 -d 4 -p ack -e 40 -c 0 -i 26 -a 0 -x {5.0 4.0 9 ------- null}
- -t 0.4153517 -s 0 -d 4 -p ack -e 40 -c 0 -i 26 -a 0 -x {5.0 4.0 9 ------- null}
h -t 0.4153517 -s 0 -d 4 -p ack -e 40 -c 0 -i 26 -a 0 -x {5.0 4.0 -1 ------- null}
r -t 0.4163837 -s 0 -d 4 -p ack -e 40 -c 0 -i 26 -a 0 -x {5.0 4.0 9 ------- null}
+ -t 0.4163837 -s 4 -d 0 -p tcp -e 1040 -c 0 -i 30 -a 0 -x {4.0 5.0 19 ------- null}
- -t 0.4163837 -s 4 -d 0 -p tcp -e 1040 -c 0 -i 30 -a 0 -x {4.0 5.0 19 ------- null}
h -t 0.4163837 -s 4 -d 0 -p tcp -e 1040 -c 0 -i 30 -a 0 -x {4.0 5.0 -1 ------- null}
+ -t 0.4163837 -s 4 -d 0 -p tcp -e 1040 -c 0 -i 31 -a 0 -x {4.0 5.0 20 ------- null}
- -t 0.4171277 -s 0 -d 1 -p tcp -e 1040 -c 0 -i 21 -a 0 -x {4.0 5.0 13 ------- null}
h -t 0.4171277 -s 0 -d 1 -p tcp -e 1040 -c 0 -i 21 -a 0 -x {4.0 5.0 -1 ------- null}
- -t 0.4172157 -s 4 -d 0 -p tcp -e 1040 -c 0 -i 31 -a 0 -x {4.0 5.0 20 ------- null}
h -t 0.4172157 -s 4 -d 0 -p tcp -e 1040 -c 0 -i 31 -a 0 -x {4.0 5.0 -1 ------- null}
r -t 0.4182157 -s 4 -d 0 -p tcp -e 1040 -c 0 -i 30 -a 0 -x {4.0 5.0 19 ------- null}
+ -t 0.4182157 -s 0 -d 1 -p tcp -e 1040 -c 0 -i 30 -a 0 -x {4.0 5.0 19 ------- null}
r -t 0.4188077 -s 0 -d 1 -p tcp -e 1040 -c 0 -i 18 -a 0 -x {4.0 5.0 11 ------- null}
+ -t 0.4188077 -s 1 -d 5 -p tcp -e 1040 -c 0 -i 18 -a 0 -x {4.0 5.0 11 ------- null}
- -t 0.4188077 -s 1 -d 5 -p tcp -e 1040 -c 0 -i 18 -a 0 -x {4.0 5.0 11 ------- null}
h -t 0.4188077 -s 1 -d 5 -p tcp -e 1040 -c 0 -i 18 -a 0 -x {4.0 5.0 -1 ------- null}
r -t 0.4190477 -s 4 -d 0 -p tcp -e 1040 -c 0 -i 31 -a 0 -x {4.0 5.0 20 ------- null}
+ -t 0.4190477 -s 0 -d 1 -p tcp -e 1040 -c 0 -i 31 -a 0 -x {4.0 5.0 20 ------- null}
r -t 0.4206397 -s 1 -d 5 -p tcp -e 1040 -c 0 -i 18 -a 0 -x {4.0 5.0 11 ------- null}
+ -t 0.4206397 -s 5 -d 1 -p ack -e 40 -c 0 -i 32 -a 0 -x {5.0 4.0 11 ------- null}
- -t 0.4206397 -s 5 -d 1 -p ack -e 40 -c 0 -i 32 -a 0 -x {5.0 4.0 11 ------- null}
h -t 0.4206397 -s 5 -d 1 -p ack -e 40 -c 0 -i 32 -a 0 -x {5.0 4.0 -1 ------- null}
r -t 0.4216717 -s 5 -d 1 -p ack -e 40 -c 0 -i 32 -a 0 -x {5.0 4.0 11 ------- null}
+ -t 0.4216717 -s 1 -d 0 -p ack -e 40 -c 0 -i 32 -a 0 -x {5.0 4.0 11 ------- null}
- -t 0.4216717 -s 1 -d 0 -p ack -e 40 -c 0 -i 32 -a 0 -x {5.0 4.0 11 ------- null}
h -t 0.4216717 -s 1 -d 0 -p ack -e 40 -c 0 -i 32 -a 0 -x {5.0 4.0 -1 ------- null}
r -t 0.4236717 -s 1 -d 0 -p ack -e 40 -c 0 -i 29 -a 0 -x {5.0 4.0 10 ------- null}
+ -t 0.4236717 -s 0 -d 4 -p ack -e 40 -c 0 -i 29 -a 0 -x {5.0 4.0 10 ------- null}
- -t 0.4236717 -s 0 -d 4 -p ack -e 40 -c 0 -i 29 -a 0 -x {5.0 4.0 10 ------- null}
h -t 0.4236717 -s 0 -d 4 -p ack -e 40 -c 0 -i 29 -a 0 -x {5.0 4.0 -1 ------- null}
r -t 0.4247037 -s 0 -d 4 -p ack -e 40 -c 0 -i 29 -a 0 -x {5.0 4.0 10 ------- null}
+ -t 0.4247037 -s 4 -d 0 -p tcp -e 1040 -c 0 -i 33 -a 0 -x {4.0 5.0 21 ------- null}
- -t 0.4247037 -s 4 -d 0 -p tcp -e 1040 -c 0 -i 33 -a 0 -x {4.0 5.0 21 ------- null}
h -t 0.4247037 -s 4 -d 0 -p tcp -e 1040 -c 0 -i 33 -a 0 -x {4.0 5.0 -1 ------- null}
+ -t 0.4247037 -s 4 -d 0 -p tcp -e 1040 -c 0 -i 34 -a 0 -x {4.0 5.0 22 ------- null}
- -t 0.4254477 -s 0 -d 1 -p tcp -e 1040 -c 0 -i 22 -a 0 -x {4.0 5.0 14 ------- null}
h -t 0.4254477 -s 0 -d 1 -p tcp -e 1040 -c 0 -i 22 -a 0 -x {4.0 5.0 -1 ------- null}
- -t 0.4255357 -s 4 -d 0 -p tcp -e 1040 -c 0 -i 34 -a 0 -x {4.0 5.0 22 ------- null}
h -t 0.4255357 -s 4 -d 0 -p tcp -e 1040 -c 0 -i 34 -a 0 -x {4.0 5.0 -1 ------- null}
r -t 0.4265357 -s 4 -d 0 -p tcp -e 1040 -c 0 -i 33 -a 0 -x {4.0 5.0 21 ------- null}
+ -t 0.4265357 -s 0 -d 1 -p tcp -e 1040 -c 0 -i 33 -a 0 -x {4.0 5.0 21 ------- null}
r -t 0.4271277 -s 0 -d 1 -p tcp -e 1040 -c 0 -i 19 -a 0 -x {4.0 5.0 12 ------- null}
+ -t 0.4271277 -s 1 -d 5 -p tcp -e 1040 -c 0 -i 19 -a 0 -x {4.0 5.0 12 ------- null}
- -t 0.4271277 -s 1 -d 5 -p tcp -e 1040 -c 0 -i 19 -a 0 -x {4.0 5.0 12 ------- null}
h -t 0.4271277 -s 1 -d 5 -p tcp -e 1040 -c 0 -i 19 -a 0 -x {4.0 5.0 -1 ------- null}
r -t 0.4273677 -s 4 -d 0 -p tcp -e 1040 -c 0 -i 34 -a 0 -x {4.0 5.0 22 ------- null}
+ -t 0.4273677 -s 0 -d 1 -p tcp -e 1040 -c 0 -i 34 -a 0 -x {4.0 5.0 22 ------- null}
r -t 0.4289597 -s 1 -d 5 -p tcp -e 1040 -c 0 -i 19 -a 0 -x {4.0 5.0 12 ------- null}