+ 0 0 20 tcp 40 ------- 0 0.0 1.0 0 0
- 0 0 20 tcp 40 ------- 0 0.0 1.0 0 0
+ 0 2 20 tcp 40 ------- 1 2.0 3.0 0 1
- 0 2 20 tcp 40 ------- 1 2.0 3.0 0 1
+ 0 4 20 tcp 40 ------- 2 4.0 5.0 0 2
- 0 4 20 tcp 40 ------- 2 4.0 5.0 0 2
+ 0 6 20 tcp 40 ------- 3 6.0 7.0 0 3
- 0 6 20 tcp 40 ------- 3 6.0 7.0 0 3
+ 0 8 20 tcp 40 ------- 4 8.0 9.0 0 4
- 0 8 20 tcp 40 ------- 4 8.0 9.0 0 4
+ 0 10 20 tcp 40 ------- 5 10.0 11.0 0 5
- 0 10 20 tcp 40 ------- 5 10.0 11.0 0 5
+ 0 12 20 tcp 40 ------- 6 12.0 13.0 0 6
- 0 12 20 tcp 40 ------- 6 12.0 13.0 0 6
+ 0 14 20 tcp 40 ------- 7 14.0 15.0 0 7
- 0 14 20 tcp 40 ------- 7 14.0 15.0 0 7
+ 0 16 20 tcp 40 ------- 8 16.0 17.0 0 8
- 0 16 20 tcp 40 ------- 8 16.0 17.0 0 8
+ 0 18 20 tcp 40 ------- 9 18.0 19.0 0 9
- 0 18 20 tcp 40 ------- 9 18.0 19.0 0 9
r 3e-06 0 20 tcp 40 ------- 0 0.0 1.0 0 0
+ 3e-06 20 21 tcp 40 ------- 0 0.0 1.0 0 0
- 3e-06 20 21 tcp 40 ------- 0 0.0 1.0 0 0
r 0.010003 2 20 tcp 40 ------- 1 2.0 3.0 0 1
+ 0.010003 20 21 tcp 40 ------- 1 2.0 3.0 0 1
- 0.010003 20 21 tcp 40 ------- 1 2.0 3.0 0 1
r 0.015717 20 21 tcp 40 ------- 0 0.0 1.0 0 0
+ 0.015717 21 1 tcp 40 ------- 0 0.0 1.0 0 0
- 0.015717 21 1 tcp 40 ------- 0 0.0 1.0 0 0
r 0.015721 21 1 tcp 40 ------- 0 0.0 1.0 0 0
+ 0.015721 1 21 ack 40 ------- 0 1.0 0.0 0 10
- 0.015721 1 21 ack 40 ------- 0 1.0 0.0 0 10
r 0.015724 1 21 ack 40 ------- 0 1.0 0.0 0 10
+ 0.015724 21 20 ack 40 ------- 0 1.0 0.0 0 10
- 0.015724 21 20 ack 40 ------- 0 1.0 0.0 0 10
r 0.020003 4 20 tcp 40 ------- 2 4.0 5.0 0 2
+ 0.020003 20 21 tcp 40 ------- 2 4.0 5.0 0 2
- 0.020003 20 21 tcp 40 ------- 2 4.0 5.0 0 2
r 0.025717 20 21 tcp 40 ------- 1 2.0 3.0 0 1
+ 0.025717 21 3 tcp 40 ------- 1 2.0 3.0 0 1
- 0.025717 21 3 tcp 40 ------- 1 2.0 3.0 0 1
r 0.030003 6 20 tcp 40 ------- 3 6.0 7.0 0 3
+ 0.030003 20 21 tcp 40 ------- 3 6.0 7.0 0 3
- 0.030003 20 21 tcp 40 ------- 3 6.0 7.0 0 3
r 0.031438 21 20 ack 40 ------- 0 1.0 0.0 0 10
+ 0.031438 20 0 ack 40 ------- 0 1.0 0.0 0 10
- 0.031438 20 0 ack 40 ------- 0 1.0 0.0 0 10
r 0.031441 20 0 ack 40 ------- 0 1.0 0.0 0 10
+ 0.031441 0 20 tcp 1040 ------- 0 0.0 1.0 1 11
- 0.031441 0 20 tcp 1040 ------- 0 0.0 1.0 1 11
+ 0.031441 0 20 tcp 1040 ------- 0 0.0 1.0 2 12
r 0.031525 0 20 tcp 1040 ------- 0 0.0 1.0 1 11
+ 0.031525 20 21 tcp 1040 ------- 0 0.0 1.0 1 11
- 0.031525 0 20 tcp 1040 ------- 0 0.0 1.0 2 12
r 0.031608 0 20 tcp 1040 ------- 0 0.0 1.0 2 12
+ 0.031608 20 21 tcp 1040 ------- 0 0.0 1.0 2 12
r 0.035717 20 21 tcp 40 ------- 2 4.0 5.0 0 2
+ 0.035717 21 5 tcp 40 ------- 2 4.0 5.0 0 2
- 0.035717 21 5 tcp 40 ------- 2 4.0 5.0 0 2
- 0.035717 20 21 tcp 1040 ------- 0 0.0 1.0 1 11
r 0.035721 21 3 tcp 40 ------- 1 2.0 3.0 0 1
+ 0.035721 3 21 ack 40 ------- 1 3.0 2.0 0 13
- 0.035721 3 21 ack 40 ------- 1 3.0 2.0 0 13
r 0.040003 8 20 tcp 40 ------- 4 8.0 9.0 0 4
+ 0.040003 20 21 tcp 40 ------- 4 8.0 9.0 0 4
r 0.045717 20 21 tcp 40 ------- 3 6.0 7.0 0 3
+ 0.045717 21 7 tcp 40 ------- 3 6.0 7.0 0 3
- 0.045717 21 7 tcp 40 ------- 3 6.0 7.0 0 3
r 0.045724 3 21 ack 40 ------- 1 3.0 2.0 0 13
+ 0.045724 21 20 ack 40 ------- 1 3.0 2.0 0 13
- 0.045724 21 20 ack 40 ------- 1 3.0 2.0 0 13
r 0.050003 10 20 tcp 40 ------- 5 10.0 11.0 0 5
+ 0.050003 20 21 tcp 40 ------- 5 10.0 11.0 0 5
r 0.055721 21 5 tcp 40 ------- 2 4.0 5.0 0 2
+ 0.055721 5 21 ack 40 ------- 2 5.0 4.0 0 14
- 0.055721 5 21 ack 40 ------- 2 5.0 4.0 0 14
r 0.060003 12 20 tcp 40 ------- 6 12.0 13.0 0 6
+ 0.060003 20 21 tcp 40 ------- 6 12.0 13.0 0 6
r 0.061438 21 20 ack 40 ------- 1 3.0 2.0 0 13
+ 0.061438 20 2 ack 40 ------- 1 3.0 2.0 0 13
- 0.061438 20 2 ack 40 ------- 1 3.0 2.0 0 13
r 0.070003 14 20 tcp 40 ------- 7 14.0 15.0 0 7
+ 0.070003 20 21 tcp 40 ------- 7 14.0 15.0 0 7
r 0.071441 20 2 ack 40 ------- 1 3.0 2.0 0 13
+ 0.071441 2 20 tcp 1040 ------- 1 2.0 3.0 1 15
- 0.071441 2 20 tcp 1040 ------- 1 2.0 3.0 1 15
+ 0.071441 2 20 tcp 1040 ------- 1 2.0 3.0 2 16
- 0.071525 2 20 tcp 1040 ------- 1 2.0 3.0 2 16
r 0.075721 21 7 tcp 40 ------- 3 6.0 7.0 0 3
+ 0.075721 7 21 ack 40 ------- 3 7.0 6.0 0 17
- 0.075721 7 21 ack 40 ------- 3 7.0 6.0 0 17
r 0.075724 5 21 ack 40 ------- 2 5.0 4.0 0 14
+ 0.075724 21 20 ack 40 ------- 2 5.0 4.0 0 14
- 0.075724 21 20 ack 40 ------- 2 5.0 4.0 0 14
r 0.080003 16 20 tcp 40 ------- 8 16.0 17.0 0 8
+ 0.080003 20 21 tcp 40 ------- 8 16.0 17.0 0 8
r 0.081525 2 20 tcp 1040 ------- 1 2.0 3.0 1 15
+ 0.081525 20 21 tcp 1040 ------- 1 2.0 3.0 1 15
r 0.081608 2 20 tcp 1040 ------- 1 2.0 3.0 2 16
+ 0.081608 20 21 tcp 1040 ------- 1 2.0 3.0 2 16
r 0.090003 18 20 tcp 40 ------- 9 18.0 19.0 0 9
+ 0.090003 20 21 tcp 40 ------- 9 18.0 19.0 0 9
r 0.091438 21 20 ack 40 ------- 2 5.0 4.0 0 14
+ 0.091438 20 4 ack 40 ------- 2 5.0 4.0 0 14
- 0.091438 20 4 ack 40 ------- 2 5.0 4.0 0 14
r 0.105724 7 21 ack 40 ------- 3 7.0 6.0 0 17
+ 0.105724 21 20 ack 40 ------- 3 7.0 6.0 0 17
- 0.105724 21 20 ack 40 ------- 3 7.0 6.0 0 17
r 0.111441 20 4 ack 40 ------- 2 5.0 4.0 0 14
+ 0.111441 4 20 tcp 1040 ------- 2 4.0 5.0 1 18
- 0.111441 4 20 tcp 1040 ------- 2 4.0 5.0 1 18
+ 0.111441 4 20 tcp 1040 ------- 2 4.0 5.0 2 19
- 0.111525 4 20 tcp 1040 ------- 2 4.0 5.0 2 19
r 0.121438 21 20 ack 40 ------- 3 7.0 6.0 0 17
+ 0.121438 20 6 ack 40 ------- 3 7.0 6.0 0 17
- 0.121438 20 6 ack 40 ------- 3 7.0 6.0 0 17
r 0.131525 4 20 tcp 1040 ------- 2 4.0 5.0 1 18
+ 0.131525 20 21 tcp 1040 ------- 2 4.0 5.0 1 18
r 0.131608 4 20 tcp 1040 ------- 2 4.0 5.0 2 19
+ 0.131608 20 21 tcp 1040 ------- 2 4.0 5.0 2 19
r 0.151441 20 6 ack 40 ------- 3 7.0 6.0 0 17
+ 0.151441 6 20 tcp 1040 ------- 3 6.0 7.0 1 20
- 0.151441 6 20 tcp 1040 ------- 3 6.0 7.0 1 20
+ 0.151441 6 20 tcp 1040 ------- 3 6.0 7.0 2 21
- 0.151525 6 20 tcp 1040 ------- 3 6.0 7.0 2 21
r 0.181525 6 20 tcp 1040 ------- 3 6.0 7.0 1 20
+ 0.181525 20 21 tcp 1040 ------- 3 6.0 7.0 1 20
r 0.181608 6 20 tcp 1040 ------- 3 6.0 7.0 2 21
+ 0.181608 20 21 tcp 1040 ------- 3 6.0 7.0 2 21
- 0.184289 20 21 tcp 1040 ------- 0 0.0 1.0 2 12
r 0.194289 20 21 tcp 1040 ------- 0 0.0 1.0 1 11
+ 0.194289 21 1 tcp 1040 ------- 0 0.0 1.0 1 11
- 0.194289 21 1 tcp 1040 ------- 0 0.0 1.0 1 11
r 0.194372 21 1 tcp 1040 ------- 0 0.0 1.0 1 11
+ 0.194372 1 21 ack 40 ------- 0 1.0 0.0 1 22
- 0.194372 1 21 ack 40 ------- 0 1.0 0.0 1 22
r 0.194375 1 21 ack 40 ------- 0 1.0 0.0 1 22
+ 0.194375 21 20 ack 40 ------- 0 1.0 0.0 1 22
- 0.194375 21 20 ack 40 ------- 0 1.0 0.0 1 22
r 0.21009 21 20 ack 40 ------- 0 1.0 0.0 1 22
+ 0.21009 20 0 ack 40 ------- 0 1.0 0.0 1 22
- 0.21009 20 0 ack 40 ------- 0 1.0 0.0 1 22
r 0.210093 20 0 ack 40 ------- 0 1.0 0.0 1 22
+ 0.210093 0 20 tcp 1040 ------- 0 0.0 1.0 3 23
- 0.210093 0 20 tcp 1040 ------- 0 0.0 1.0 3 23
+ 0.210093 0 20 tcp 1040 ------- 0 0.0 1.0 4 24
r 0.210176 0 20 tcp 1040 ------- 0 0.0 1.0 3 23
+ 0.210176 20 21 tcp 1040 ------- 0 0.0 1.0 3 23
- 0.210176 0 20 tcp 1040 ------- 0 0.0 1.0 4 24
r 0.210259 0 20 tcp 1040 ------- 0 0.0 1.0 4 24
+ 0.210259 20 21 tcp 1040 ------- 0 0.0 1.0 4 24
+ 0.281441 2 20 tcp 1040 ---A--- 1 2.0 3.0 1 25
- 0.281441 2 20 tcp 1040 ---A--- 1 2.0 3.0 1 25
r 0.291525 2 20 tcp 1040 ---A--- 1 2.0 3.0 1 25
+ 0.291525 20 21 tcp 1040 ---A--- 1 2.0 3.0 1 25
- 0.33286 20 21 tcp 40 ------- 4 8.0 9.0 0 4
- 0.338575 20 21 tcp 40 ------- 5 10.0 11.0 0 5
r 0.34286 20 21 tcp 1040 ------- 0 0.0 1.0 2 12
+ 0.34286 21 1 tcp 1040 ------- 0 0.0 1.0 2 12
- 0.34286 21 1 tcp 1040 ------- 0 0.0 1.0 2 12
r 0.342944 21 1 tcp 1040 ------- 0 0.0 1.0 2 12
+ 0.342944 1 21 ack 40 ------- 0 1.0 0.0 2 26
- 0.342944 1 21 ack 40 ------- 0 1.0 0.0 2 26
r 0.342947 1 21 ack 40 ------- 0 1.0 0.0 2 26
+ 0.342947 21 20 ack 40 ------- 0 1.0 0.0 2 26
- 0.342947 21 20 ack 40 ------- 0 1.0 0.0 2 26
- 0.344289 20 21 tcp 40 ------- 6 12.0 13.0 0 6
r 0.348575 20 21 tcp 40 ------- 4 8.0 9.0 0 4
+ 0.348575 21 9 tcp 40 ------- 4 8.0 9.0 0 4
- 0.348575 21 9 tcp 40 ------- 4 8.0 9.0 0 4
- 0.350003 20 21 tcp 40 ------- 7 14.0 15.0 0 7
r 0.354289 20 21 tcp 40 ------- 5 10.0 11.0 0 5
+ 0.354289 21 11 tcp 40 ------- 5 10.0 11.0 0 5
- 0.354289 21 11 tcp 40 ------- 5 10.0 11.0 0 5
- 0.355717 20 21 tcp 40 ------- 8 16.0 17.0 0 8
r 0.358661 21 20 ack 40 ------- 0 1.0 0.0 2 26
+ 0.358661 20 0 ack 40 ------- 0 1.0 0.0 2 26
- 0.358661 20 0 ack 40 ------- 0 1.0 0.0 2 26
r 0.358664 20 0 ack 40 ------- 0 1.0 0.0 2 26
+ 0.358664 0 20 tcp 1040 ------- 0 0.0 1.0 5 27
- 0.358664 0 20 tcp 1040 ------- 0 0.0 1.0 5 27
+ 0.358664 0 20 tcp 1040 ------- 0 0.0 1.0 6 28
r 0.358747 0 20 tcp 1040 ------- 0 0.0 1.0 5 27
+ 0.358747 20 21 tcp 1040 ------- 0 0.0 1.0 5 27
- 0.358747 0 20 tcp 1040 ------- 0 0.0 1.0 6 28
r 0.358831 0 20 tcp 1040 ------- 0 0.0 1.0 6 28
+ 0.358831 20 21 tcp 1040 ------- 0 0.0 1.0 6 28
r 0.360003 20 21 tcp 40 ------- 6 12.0 13.0 0 6
+ 0.360003 21 13 tcp 40 ------- 6 12.0 13.0 0 6
- 0.360003 21 13 tcp 40 ------- 6 12.0 13.0 0 6
- 0.361432 20 21 tcp 1040 ------- 1 2.0 3.0 1 15
r 0.365717 20 21 tcp 40 ------- 7 14.0 15.0 0 7
+ 0.365717 21 15 tcp 40 ------- 7 14.0 15.0 0 7
- 0.365717 21 15 tcp 40 ------- 7 14.0 15.0 0 7
r 0.371432 20 21 tcp 40 ------- 8 16.0 17.0 0 8
+ 0.371432 21 17 tcp 40 ------- 8 16.0 17.0 0 8
- 0.371432 21 17 tcp 40 ------- 8 16.0 17.0 0 8
r 0.388578 21 9 tcp 40 ------- 4 8.0 9.0 0 4
+ 0.388578 9 21 ack 40 ------- 4 9.0 8.0 0 29
- 0.388578 9 21 ack 40 ------- 4 9.0 8.0 0 29
r 0.404292 21 11 tcp 40 ------- 5 10.0 11.0 0 5
+ 0.404292 11 21 ack 40 ------- 5 11.0 10.0 0 30
- 0.404292 11 21 ack 40 ------- 5 11.0 10.0 0 30
r 0.420006 21 13 tcp 40 ------- 6 12.0 13.0 0 6
+ 0.420006 13 21 ack 40 ------- 6 13.0 12.0 0 31
- 0.420006 13 21 ack 40 ------- 6 13.0 12.0 0 31
r 0.428581 9 21 ack 40 ------- 4 9.0 8.0 0 29
+ 0.428581 21 20 ack 40 ------- 4 9.0 8.0 0 29
- 0.428581 21 20 ack 40 ------- 4 9.0 8.0 0 29
r 0.435721 21 15 tcp 40 ------- 7 14.0 15.0 0 7
+ 0.435721 15 21 ack 40 ------- 7 15.0 14.0 0 32
- 0.435721 15 21 ack 40 ------- 7 15.0 14.0 0 32
+ 0.441441 4 20 tcp 1040 ---A--- 2 4.0 5.0 1 33
- 0.441441 4 20 tcp 1040 ---A--- 2 4.0 5.0 1 33
r 0.444295 21 20 ack 40 ------- 4 9.0 8.0 0 29
+ 0.444295 20 8 ack 40 ------- 4 9.0 8.0 0 29
- 0.444295 20 8 ack 40 ------- 4 9.0 8.0 0 29
r 0.451435 21 17 tcp 40 ------- 8 16.0 17.0 0 8
+ 0.451435 17 21 ack 40 ------- 8 17.0 16.0 0 34
- 0.451435 17 21 ack 40 ------- 8 17.0 16.0 0 34
r 0.454295 11 21 ack 40 ------- 5 11.0 10.0 0 30
+ 0.454295 21 20 ack 40 ------- 5 11.0 10.0 0 30
- 0.454295 21 20 ack 40 ------- 5 11.0 10.0 0 30
r 0.461525 4 20 tcp 1040 ---A--- 2 4.0 5.0 1 33
+ 0.461525 20 21 tcp 1040 ---A--- 2 4.0 5.0 1 33
r 0.47001 21 20 ack 40 ------- 5 11.0 10.0 0 30
+ 0.47001 20 10 ack 40 ------- 5 11.0 10.0 0 30
- 0.47001 20 10 ack 40 ------- 5 11.0 10.0 0 30
r 0.48001 13 21 ack 40 ------- 6 13.0 12.0 0 31
+ 0.48001 21 20 ack 40 ------- 6 13.0 12.0 0 31
- 0.48001 21 20 ack 40 ------- 6 13.0 12.0 0 31
r 0.484299 20 8 ack 40 ------- 4 9.0 8.0 0 29
+ 0.484299 8 20 tcp 1040 ------- 4 8.0 9.0 1 35
- 0.484299 8 20 tcp 1040 ------- 4 8.0 9.0 1 35
+ 0.484299 8 20 tcp 1040 ------- 4 8.0 9.0 2 36
- 0.484382 8 20 tcp 1040 ------- 4 8.0 9.0 2 36
r 0.495724 21 20 ack 40 ------- 6 13.0 12.0 0 31
+ 0.495724 20 12 ack 40 ------- 6 13.0 12.0 0 31
- 0.495724 20 12 ack 40 ------- 6 13.0 12.0 0 31
r 0.505724 15 21 ack 40 ------- 7 15.0 14.0 0 32
+ 0.505724 21 20 ack 40 ------- 7 15.0 14.0 0 32
- 0.505724 21 20 ack 40 ------- 7 15.0 14.0 0 32
- 0.510003 20 21 tcp 1040 ------- 1 2.0 3.0 2 16
r 0.520003 20 21 tcp 1040 ------- 1 2.0 3.0 1 15
+ 0.520003 21 3 tcp 1040 ------- 1 2.0 3.0 1 15
- 0.520003 21 3 tcp 1040 ------- 1 2.0 3.0 1 15
r 0.520013 20 10 ack 40 ------- 5 11.0 10.0 0 30
+ 0.520013 10 20 tcp 1040 ------- 5 10.0 11.0 1 37
- 0.520013 10 20 tcp 1040 ------- 5 10.0 11.0 1 37
+ 0.520013 10 20 tcp 1040 ------- 5 10.0 11.0 2 38
- 0.520096 10 20 tcp 1040 ------- 5 10.0 11.0 2 38
r 0.521438 21 20 ack 40 ------- 7 15.0 14.0 0 32
+ 0.521438 20 14 ack 40 ------- 7 15.0 14.0 0 32
- 0.521438 20 14 ack 40 ------- 7 15.0 14.0 0 32
r 0.524382 8 20 tcp 1040 ------- 4 8.0 9.0 1 35
+ 0.524382 20 21 tcp 1040 ------- 4 8.0 9.0 1 35
r 0.524465 8 20 tcp 1040 ------- 4 8.0 9.0 2 36
+ 0.524465 20 21 tcp 1040 ------- 4 8.0 9.0 2 36
r 0.530086 21 3 tcp 1040 ------- 1 2.0 3.0 1 15
+ 0.530086 3 21 ack 40 ------- 1 3.0 2.0 1 39
- 0.530086 3 21 ack 40 ------- 1 3.0 2.0 1 39
r 0.531438 17 21 ack 40 ------- 8 17.0 16.0 0 34
+ 0.531438 21 20 ack 40 ------- 8 17.0 16.0 0 34
- 0.531438 21 20 ack 40 ------- 8 17.0 16.0 0 34
r 0.54009 3 21 ack 40 ------- 1 3.0 2.0 1 39
+ 0.54009 21 20 ack 40 ------- 1 3.0 2.0 1 39
- 0.54009 21 20 ack 40 ------- 1 3.0 2.0 1 39
r 0.547152 21 20 ack 40 ------- 8 17.0 16.0 0 34
+ 0.547152 20 16 ack 40 ------- 8 17.0 16.0 0 34
- 0.547152 20 16 ack 40 ------- 8 17.0 16.0 0 34
r 0.555727 20 12 ack 40 ------- 6 13.0 12.0 0 31
+ 0.555727 12 20 tcp 1040 ------- 6 12.0 13.0 1 40
- 0.555727 12 20 tcp 1040 ------- 6 12.0 13.0 1 40
+ 0.555727 12 20 tcp 1040 ------- 6 12.0 13.0 2 41
r 0.555804 21 20 ack 40 ------- 1 3.0 2.0 1 39
+ 0.555804 20 2 ack 40 ------- 1 3.0 2.0 1 39
- 0.555804 20 2 ack 40 ------- 1 3.0 2.0 1 39
- 0.55581 12 20 tcp 1040 ------- 6 12.0 13.0 2 41
r 0.565807 20 2 ack 40 ------- 1 3.0 2.0 1 39
+ 0.565807 2 20 tcp 1040 ------- 1 2.0 3.0 2 42
- 0.565807 2 20 tcp 1040 ------- 1 2.0 3.0 2 42
+ 0.565807 2 20 tcp 1040 ------- 1 2.0 3.0 3 43
- 0.56589 2 20 tcp 1040 ------- 1 2.0 3.0 3 43
r 0.570096 10 20 tcp 1040 ------- 5 10.0 11.0 1 37
+ 0.570096 20 21 tcp 1040 ------- 5 10.0 11.0 1 37
r 0.570179 10 20 tcp 1040 ------- 5 10.0 11.0 2 38
+ 0.570179 20 21 tcp 1040 ------- 5 10.0 11.0 2 38
r 0.57589 2 20 tcp 1040 ------- 1 2.0 3.0 2 42
+ 0.57589 20 21 tcp 1040 ------- 1 2.0 3.0 2 42
r 0.575973 2 20 tcp 1040 ------- 1 2.0 3.0 3 43
+ 0.575973 20 21 tcp 1040 ------- 1 2.0 3.0 3 43
r 0.591441 20 14 ack 40 ------- 7 15.0 14.0 0 32
+ 0.591441 14 20 tcp 1040 ------- 7 14.0 15.0 1 44
- 0.591441 14 20 tcp 1040 ------- 7 14.0 15.0 1 44
+ 0.591441 14 20 tcp 1040 ------- 7 14.0 15.0 2 45
- 0.591525 14 20 tcp 1040 ------- 7 14.0 15.0 2 45
+ 0.598664 0 20 tcp 1040 ---A--- 0 0.0 1.0 3 46
- 0.598664 0 20 tcp 1040 ---A--- 0 0.0 1.0 3 46
r 0.598747 0 20 tcp 1040 ---A--- 0 0.0 1.0 3 46
+ 0.598747 20 21 tcp 1040 ---A--- 0 0.0 1.0 3 46
+ 0.601441 6 20 tcp 1040 ---A--- 3 6.0 7.0 1 47
- 0.601441 6 20 tcp 1040 ---A--- 3 6.0 7.0 1 47
r 0.61581 12 20 tcp 1040 ------- 6 12.0 13.0 1 40
+ 0.61581 20 21 tcp 1040 ------- 6 12.0 13.0 1 40
r 0.615893 12 20 tcp 1040 ------- 6 12.0 13.0 2 41
+ 0.615893 20 21 tcp 1040 ------- 6 12.0 13.0 2 41
r 0.627156 20 16 ack 40 ------- 8 17.0 16.0 0 34
+ 0.627156 16 20 tcp 1040 ------- 8 16.0 17.0 1 48
- 0.627156 16 20 tcp 1040 ------- 8 16.0 17.0 1 48
+ 0.627156 16 20 tcp 1040 ------- 8 16.0 17.0 2 49
- 0.627239 16 20 tcp 1040 ------- 8 16.0 17.0 2 49
r 0.631525 6 20 tcp 1040 ---A--- 3 6.0 7.0 1 47
+ 0.631525 20 21 tcp 1040 ---A--- 3 6.0 7.0 1 47
- 0.658575 20 21 tcp 40 ------- 9 18.0 19.0 0 9
r 0.661525 14 20 tcp 1040 ------- 7 14.0 15.0 1 44
+ 0.661525 20 21 tcp 1040 ------- 7 14.0 15.0 1 44
r 0.661608 14 20 tcp 1040 ------- 7 14.0 15.0 2 45
+ 0.661608 20 21 tcp 1040 ------- 7 14.0 15.0 2 45
- 0.664289 20 21 tcp 1040 ------- 2 4.0 5.0 1 18
r 0.668575 20 21 tcp 1040 ------- 1 2.0 3.0 2 16
+ 0.668575 21 3 tcp 1040 ------- 1 2.0 3.0 2 16
- 0.668575 21 3 tcp 1040 ------- 1 2.0 3.0 2 16
r 0.674289 20 21 tcp 40 ------- 9 18.0 19.0 0 9
+ 0.674289 21 19 tcp 40 ------- 9 18.0 19.0 0 9
- 0.674289 21 19 tcp 40 ------- 9 18.0 19.0 0 9
r 0.678658 21 3 tcp 1040 ------- 1 2.0 3.0 2 16
+ 0.678658 3 21 ack 40 ------- 1 3.0 2.0 2 50
- 0.678658 3 21 ack 40 ------- 1 3.0 2.0 2 50
r 0.688661 3 21 ack 40 ------- 1 3.0 2.0 2 50
+ 0.688661 21 20 ack 40 ------- 1 3.0 2.0 2 50
- 0.688661 21 20 ack 40 ------- 1 3.0 2.0 2 50
r 0.704375 21 20 ack 40 ------- 1 3.0 2.0 2 50
+ 0.704375 20 2 ack 40 ------- 1 3.0 2.0 2 50
- 0.704375 20 2 ack 40 ------- 1 3.0 2.0 2 50
r 0.707239 16 20 tcp 1040 ------- 8 16.0 17.0 1 48
+ 0.707239 20 21 tcp 1040 ------- 8 16.0 17.0 1 48
r 0.707322 16 20 tcp 1040 ------- 8 16.0 17.0 2 49
+ 0.707322 20 21 tcp 1040 ------- 8 16.0 17.0 2 49
r 0.714379 20 2 ack 40 ------- 1 3.0 2.0 2 50
+ 0.714379 2 20 tcp 1040 ------- 1 2.0 3.0 4 51
- 0.714379 2 20 tcp 1040 ------- 1 2.0 3.0 4 51
r 0.724462 2 20 tcp 1040 ------- 1 2.0 3.0 4 51
+ 0.724462 20 21 tcp 1040 ------- 1 2.0 3.0 4 51
r 0.764292 21 19 tcp 40 ------- 9 18.0 19.0 0 9
+ 0.764292 19 21 ack 40 ------- 9 19.0 18.0 0 52
- 0.764292 19 21 ack 40 ------- 9 19.0 18.0 0 52
- 0.81286 20 21 tcp 1040 ------- 2 4.0 5.0 2 19
r 0.82286 20 21 tcp 1040 ------- 2 4.0 5.0 1 18
+ 0.82286 21 5 tcp 1040 ------- 2 4.0 5.0 1 18
- 0.82286 21 5 tcp 1040 ------- 2 4.0 5.0 1 18
r 0.842944 21 5 tcp 1040 ------- 2 4.0 5.0 1 18
+ 0.842944 5 21 ack 40 ------- 2 5.0 4.0 1 53
- 0.842944 5 21 ack 40 ------- 2 5.0 4.0 1 53
r 0.854295 19 21 ack 40 ------- 9 19.0 18.0 0 52
+ 0.854295 21 20 ack 40 ------- 9 19.0 18.0 0 52
- 0.854295 21 20 ack 40 ------- 9 19.0 18.0 0 52
r 0.862947 5 21 ack 40 ------- 2 5.0 4.0 1 53
+ 0.862947 21 20 ack 40 ------- 2 5.0 4.0 1 53
- 0.862947 21 20 ack 40 ------- 2 5.0 4.0 1 53
r 0.87001 21 20 ack 40 ------- 9 19.0 18.0 0 52
+ 0.87001 20 18 ack 40 ------- 9 19.0 18.0 0 52
- 0.87001 20 18 ack 40 ------- 9 19.0 18.0 0 52
r 0.878661 21 20 ack 40 ------- 2 5.0 4.0 1 53
+ 0.878661 20 4 ack 40 ------- 2 5.0 4.0 1 53
- 0.878661 20 4 ack 40 ------- 2 5.0 4.0 1 53
r 0.898664 20 4 ack 40 ------- 2 5.0 4.0 1 53
+ 0.898664 4 20 tcp 1040 ------- 2 4.0 5.0 2 54
- 0.898664 4 20 tcp 1040 ------- 2 4.0 5.0 2 54
+ 0.898664 4 20 tcp 1040 ------- 2 4.0 5.0 3 55
- 0.898747 4 20 tcp 1040 ------- 2 4.0 5.0 3 55
r 0.918747 4 20 tcp 1040 ------- 2 4.0 5.0 2 54
+ 0.918747 20 21 tcp 1040 ------- 2 4.0 5.0 2 54
r 0.918831 4 20 tcp 1040 ------- 2 4.0 5.0 3 55
+ 0.918831 20 21 tcp 1040 ------- 2 4.0 5.0 3 55
r 0.960013 20 18 ack 40 ------- 9 19.0 18.0 0 52
+ 0.960013 18 20 tcp 1040 ------- 9 18.0 19.0 1 56
- 0.960013 18 20 tcp 1040 ------- 9 18.0 19.0 1 56
+ 0.960013 18 20 tcp 1040 ------- 9 18.0 19.0 2 57
- 0.960096 18 20 tcp 1040 ------- 9 18.0 19.0 2 57
- 0.961432 20 21 tcp 1040 ------- 3 6.0 7.0 1 20
r 0.971432 20 21 tcp 1040 ------- 2 4.0 5.0 2 19
+ 0.971432 21 5 tcp 1040 ------- 2 4.0 5.0 2 19
- 0.971432 21 5 tcp 1040 ------- 2 4.0 5.0 2 19
r 0.991515 21 5 tcp 1040 ------- 2 4.0 5.0 2 19
+ 0.991515 5 21 ack 40 ------- 2 5.0 4.0 2 58
- 0.991515 5 21 ack 40 ------- 2 5.0 4.0 2 58
r 1.011518 5 21 ack 40 ------- 2 5.0 4.0 2 58
+ 1.011518 21 20 ack 40 ------- 2 5.0 4.0 2 58
- 1.011518 21 20 ack 40 ------- 2 5.0 4.0 2 58
r 1.027232 21 20 ack 40 ------- 2 5.0 4.0 2 58
+ 1.027232 20 4 ack 40 ------- 2 5.0 4.0 2 58
- 1.027232 20 4 ack 40 ------- 2 5.0 4.0 2 58
r 1.047236 20 4 ack 40 ------- 2 5.0 4.0 2 58
+ 1.047236 4 20 tcp 1040 ------- 2 4.0 5.0 4 59
- 1.047236 4 20 tcp 1040 ------- 2 4.0 5.0 4 59
r 1.050096 18 20 tcp 1040 ------- 9 18.0 19.0 1 56
+ 1.050096 20 21 tcp 1040 ------- 9 18.0 19.0 1 56
r 1.050179 18 20 tcp 1040 ------- 9 18.0 19.0 2 57
+ 1.050179 20 21 tcp 1040 ------- 9 18.0 19.0 2 57
r 1.067319 4 20 tcp 1040 ------- 2 4.0 5.0 4 59
+ 1.067319 20 21 tcp 1040 ------- 2 4.0 5.0 4 59
+ 1.078664 0 20 tcp 1040 ---A--- 0 0.0 1.0 3 60
- 1.078664 0 20 tcp 1040 ---A--- 0 0.0 1.0 3 60
r 1.078747 0 20 tcp 1040 ---A--- 0 0.0 1.0 3 60
+ 1.078747 20 21 tcp 1040 ---A--- 0 0.0 1.0 3 60
- 1.110003 20 21 tcp 1040 ------- 3 6.0 7.0 2 21
r 1.120003 20 21 tcp 1040 ------- 3 6.0 7.0 1 20
+ 1.120003 21 7 tcp 1040 ------- 3 6.0 7.0 1 20
- 1.120003 21 7 tcp 1040 ------- 3 6.0 7.0 1 20
+ 1.134379 2 20 tcp 1040 ---A--- 1 2.0 3.0 3 61
- 1.134379 2 20 tcp 1040 ---A--- 1 2.0 3.0 3 61
r 1.144462 2 20 tcp 1040 ---A--- 1 2.0 3.0 3 61
+ 1.144462 20 21 tcp 1040 ---A--- 1 2.0 3.0 3 61
r 1.150086 21 7 tcp 1040 ------- 3 6.0 7.0 1 20
+ 1.150086 7 21 ack 40 ------- 3 7.0 6.0 1 62
- 1.150086 7 21 ack 40 ------- 3 7.0 6.0 1 62
r 1.18009 7 21 ack 40 ------- 3 7.0 6.0 1 62
+ 1.18009 21 20 ack 40 ------- 3 7.0 6.0 1 62
- 1.18009 21 20 ack 40 ------- 3 7.0 6.0 1 62
r 1.195804 21 20 ack 40 ------- 3 7.0 6.0 1 62
+ 1.195804 20 6 ack 40 ------- 3 7.0 6.0 1 62
- 1.195804 20 6 ack 40 ------- 3 7.0 6.0 1 62
r 1.225807 20 6 ack 40 ------- 3 7.0 6.0 1 62
+ 1.225807 6 20 tcp 1040 ------- 3 6.0 7.0 2 63
- 1.225807 6 20 tcp 1040 ------- 3 6.0 7.0 2 63
+ 1.225807 6 20 tcp 1040 ------- 3 6.0 7.0 3 64
- 1.22589 6 20 tcp 1040 ------- 3 6.0 7.0 3 64
r 1.25589 6 20 tcp 1040 ------- 3 6.0 7.0 2 63
+ 1.25589 20 21 tcp 1040 ------- 3 6.0 7.0 2 63
r 1.255973 6 20 tcp 1040 ------- 3 6.0 7.0 3 64
+ 1.255973 20 21 tcp 1040 ------- 3 6.0 7.0 3 64
- 1.258575 20 21 tcp 1040 ------- 0 0.0 1.0 3 23
r 1.268575 20 21 tcp 1040 ------- 3 6.0 7.0 2 21
+ 1.268575 21 7 tcp 1040 ------- 3 6.0 7.0 2 21
- 1.268575 21 7 tcp 1040 ------- 3 6.0 7.0 2 21
r 1.298658 21 7 tcp 1040 ------- 3 6.0 7.0 2 21
+ 1.298658 7 21 ack 40 ------- 3 7.0 6.0 2 65
- 1.298658 7 21 ack 40 ------- 3 7.0 6.0 2 65
r 1.328661 7 21 ack 40 ------- 3 7.0 6.0 2 65
+ 1.328661 21 20 ack 40 ------- 3 7.0 6.0 2 65
- 1.328661 21 20 ack 40 ------- 3 7.0 6.0 2 65
r 1.344375 21 20 ack 40 ------- 3 7.0 6.0 2 65
+ 1.344375 20 6 ack 40 ------- 3 7.0 6.0 2 65
- 1.344375 20 6 ack 40 ------- 3 7.0 6.0 2 65
r 1.374379 20 6 ack 40 ------- 3 7.0 6.0 2 65
+ 1.374379 6 20 tcp 1040 ------- 3 6.0 7.0 4 66
- 1.374379 6 20 tcp 1040 ------- 3 6.0 7.0 4 66
r 1.404462 6 20 tcp 1040 ------- 3 6.0 7.0 4 66
+ 1.404462 20 21 tcp 1040 ------- 3 6.0 7.0 4 66
d 1.404462 20 21 tcp 1040 ------- 3 6.0 7.0 4 66
- 1.407146 20 21 tcp 1040 ------- 0 0.0 1.0 4 24
r 1.417146 20 21 tcp 1040 ------- 0 0.0 1.0 3 23
+ 1.417146 21 1 tcp 1040 ------- 0 0.0 1.0 3 23
- 1.417146 21 1 tcp 1040 ------- 0 0.0 1.0 3 23
r 1.417229 21 1 tcp 1040 ------- 0 0.0 1.0 3 23
+ 1.417229 1 21 ack 40 ------- 0 1.0 0.0 3 67
- 1.417229 1 21 ack 40 ------- 0 1.0 0.0 3 67
r 1.417232 1 21 ack 40 ------- 0 1.0 0.0 3 67
+ 1.417232 21 20 ack 40 ------- 0 1.0 0.0 3 67
- 1.417232 21 20 ack 40 ------- 0 1.0 0.0 3 67
r 1.432947 21 20 ack 40 ------- 0 1.0 0.0 3 67
+ 1.432947 20 0 ack 40 ------- 0 1.0 0.0 3 67
- 1.432947 20 0 ack 40 ------- 0 1.0 0.0 3 67
r 1.43295 20 0 ack 40 ------- 0 1.0 0.0 3 67
+ 1.43295 0 20 tcp 1040 ------- 0 0.0 1.0 4 68
- 1.43295 0 20 tcp 1040 ------- 0 0.0 1.0 4 68
+ 1.43295 0 20 tcp 1040 ------- 0 0.0 1.0 5 69
r 1.433033 0 20 tcp 1040 ------- 0 0.0 1.0 4 68
+ 1.433033 20 21 tcp 1040 ------- 0 0.0 1.0 4 68
- 1.433033 0 20 tcp 1040 ------- 0 0.0 1.0 5 69
r 1.433116 0 20 tcp 1040 ------- 0 0.0 1.0 5 69
+ 1.433116 20 21 tcp 1040 ------- 0 0.0 1.0 5 69
- 1.555717 20 21 tcp 1040 ---A--- 1 2.0 3.0 1 25
r 1.565717 20 21 tcp 1040 ------- 0 0.0 1.0 4 24
+ 1.565717 21 1 tcp 1040 ------- 0 0.0 1.0 4 24
- 1.565717 21 1 tcp 1040 ------- 0 0.0 1.0 4 24
r 1.565801 21 1 tcp 1040 ------- 0 0.0 1.0 4 24
+ 1.565801 1 21 ack 40 ------- 0 1.0 0.0 4 70
- 1.565801 1 21 ack 40 ------- 0 1.0 0.0 4 70
r 1.565804 1 21 ack 40 ------- 0 1.0 0.0 4 70
+ 1.565804 21 20 ack 40 ------- 0 1.0 0.0 4 70
- 1.565804 21 20 ack 40 ------- 0 1.0 0.0 4 70
r 1.581518 21 20 ack 40 ------- 0 1.0 0.0 4 70
+ 1.581518 20 0 ack 40 ------- 0 1.0 0.0 4 70
- 1.581518 20 0 ack 40 ------- 0 1.0 0.0 4 70
r 1.581521 20 0 ack 40 ------- 0 1.0 0.0 4 70
+ 1.581521 0 20 tcp 1040 ------- 0 0.0 1.0 6 71
- 1.581521 0 20 tcp 1040 ------- 0 0.0 1.0 6 71
r 1.581605 0 20 tcp 1040 ------- 0 0.0 1.0 6 71
+ 1.581605 20 21 tcp 1040 ------- 0 0.0 1.0 6 71
- 1.704289 20 21 tcp 1040 ------- 0 0.0 1.0 5 27
+ 1.707236 4 20 tcp 1040 ---A--- 2 4.0 5.0 3 72
- 1.707236 4 20 tcp 1040 ---A--- 2 4.0 5.0 3 72
r 1.714289 20 21 tcp 1040 ---A--- 1 2.0 3.0 1 25
+ 1.714289 21 3 tcp 1040 ---A--- 1 2.0 3.0 1 25
- 1.714289 21 3 tcp 1040 ---A--- 1 2.0 3.0 1 25
r 1.724372 21 3 tcp 1040 ---A--- 1 2.0 3.0 1 25
+ 1.724372 3 21 ack 40 ------- 1 3.0 2.0 2 73
- 1.724372 3 21 ack 40 ------- 1 3.0 2.0 2 73
r 1.727319 4 20 tcp 1040 ---A--- 2 4.0 5.0 3 72
+ 1.727319 20 21 tcp 1040 ---A--- 2 4.0 5.0 3 72
r 1.734375 3 21 ack 40 ------- 1 3.0 2.0 2 73
+ 1.734375 21 20 ack 40 ------- 1 3.0 2.0 2 73
- 1.734375 21 20 ack 40 ------- 1 3.0 2.0 2 73
r 1.75009 21 20 ack 40 ------- 1 3.0 2.0 2 73
+ 1.75009 20 2 ack 40 ------- 1 3.0 2.0 2 73
- 1.75009 20 2 ack 40 ------- 1 3.0 2.0 2 73
r 1.760093 20 2 ack 40 ------- 1 3.0 2.0 2 73
+ 1.760093 2 20 tcp 1040 ------- 1 2.0 3.0 4 74
- 1.760093 2 20 tcp 1040 ------- 1 2.0 3.0 4 74
r 1.770176 2 20 tcp 1040 ------- 1 2.0 3.0 4 74
+ 1.770176 20 21 tcp 1040 ------- 1 2.0 3.0 4 74
- 1.85286 20 21 tcp 1040 ------- 0 0.0 1.0 6 28
r 1.86286 20 21 tcp 1040 ------- 0 0.0 1.0 5 27
+ 1.86286 21 1 tcp 1040 ------- 0 0.0 1.0 5 27
- 1.86286 21 1 tcp 1040 ------- 0 0.0 1.0 5 27
r 1.862944 21 1 tcp 1040 ------- 0 0.0 1.0 5 27
+ 1.862944 1 21 ack 40 ------- 0 1.0 0.0 5 75
- 1.862944 1 21 ack 40 ------- 0 1.0 0.0 5 75
r 1.862947 1 21 ack 40 ------- 0 1.0 0.0 5 75
+ 1.862947 21 20 ack 40 ------- 0 1.0 0.0 5 75
- 1.862947 21 20 ack 40 ------- 0 1.0 0.0 5 75
r 1.878661 21 20 ack 40 ------- 0 1.0 0.0 5 75
+ 1.878661 20 0 ack 40 ------- 0 1.0 0.0 5 75
- 1.878661 20 0 ack 40 ------- 0 1.0 0.0 5 75
r 1.878664 20 0 ack 40 ------- 0 1.0 0.0 5 75
+ 1.878664 0 20 tcp 1040 ------- 0 0.0 1.0 7 76
- 1.878664 0 20 tcp 1040 ------- 0 0.0 1.0 7 76
r 1.878747 0 20 tcp 1040 ------- 0 0.0 1.0 7 76
+ 1.878747 20 21 tcp 1040 ------- 0 0.0 1.0 7 76
+ 1.924299 8 20 tcp 1040 ---A--- 4 8.0 9.0 1 77
- 1.924299 8 20 tcp 1040 ---A--- 4 8.0 9.0 1 77
r 1.964382 8 20 tcp 1040 ---A--- 4 8.0 9.0 1 77
+ 1.964382 20 21 tcp 1040 ---A--- 4 8.0 9.0 1 77
+ 1.974379 2 20 tcp 1040 ---A--- 1 2.0 3.0 3 78
- 1.974379 2 20 tcp 1040 ---A--- 1 2.0 3.0 3 78
r 1.984462 2 20 tcp 1040 ---A--- 1 2.0 3.0 3 78
+ 1.984462 20 21 tcp 1040 ---A--- 1 2.0 3.0 3 78
d 1.984462 20 21 tcp 1040 ---A--- 1 2.0 3.0 3 78
- 2.001432 20 21 tcp 1040 ---A--- 2 4.0 5.0 1 33
r 2.011432 20 21 tcp 1040 ------- 0 0.0 1.0 6 28
+ 2.011432 21 1 tcp 1040 ------- 0 0.0 1.0 6 28
- 2.011432 21 1 tcp 1040 ------- 0 0.0 1.0 6 28
r 2.011515 21 1 tcp 1040 ------- 0 0.0 1.0 6 28
+ 2.011515 1 21 ack 40 ------- 0 1.0 0.0 6 79
- 2.011515 1 21 ack 40 ------- 0 1.0 0.0 6 79
r 2.011518 1 21 ack 40 ------- 0 1.0 0.0 6 79
+ 2.011518 21 20 ack 40 ------- 0 1.0 0.0 6 79
- 2.011518 21 20 ack 40 ------- 0 1.0 0.0 6 79
r 2.027232 21 20 ack 40 ------- 0 1.0 0.0 6 79
+ 2.027232 20 0 ack 40 ------- 0 1.0 0.0 6 79
- 2.027232 20 0 ack 40 ------- 0 1.0 0.0 6 79
r 2.027236 20 0 ack 40 ------- 0 1.0 0.0 6 79
+ 2.027236 0 20 tcp 1040 ------- 0 0.0 1.0 8 80
- 2.027236 0 20 tcp 1040 ------- 0 0.0 1.0 8 80
+ 2.027236 0 20 tcp 1040 ------- 0 0.0 1.0 9 81
r 2.027319 0 20 tcp 1040 ------- 0 0.0 1.0 8 80
+ 2.027319 20 21 tcp 1040 ------- 0 0.0 1.0 8 80
- 2.027319 0 20 tcp 1040 ------- 0 0.0 1.0 9 81
r 2.027402 0 20 tcp 1040 ------- 0 0.0 1.0 9 81
+ 2.027402 20 21 tcp 1040 ------- 0 0.0 1.0 9 81
+ 2.080013 10 20 tcp 1040 ---A--- 5 10.0 11.0 1 82
- 2.080013 10 20 tcp 1040 ---A--- 5 10.0 11.0 1 82
r 2.130096 10 20 tcp 1040 ---A--- 5 10.0 11.0 1 82
+ 2.130096 20 21 tcp 1040 ---A--- 5 10.0 11.0 1 82
- 2.150003 20 21 tcp 1040 ------- 4 8.0 9.0 1 35
r 2.160003 20 21 tcp 1040 ---A--- 2 4.0 5.0 1 33
+ 2.160003 21 5 tcp 1040 ---A--- 2 4.0 5.0 1 33
- 2.160003 21 5 tcp 1040 ---A--- 2 4.0 5.0 1 33
r 2.180086 21 5 tcp 1040 ---A--- 2 4.0 5.0 1 33
+ 2.180086 5 21 ack 40 ------- 2 5.0 4.0 2 83
- 2.180086 5 21 ack 40 ------- 2 5.0 4.0 2 83
r 2.20009 5 21 ack 40 ------- 2 5.0 4.0 2 83
+ 2.20009 21 20 ack 40 ------- 2 5.0 4.0 2 83
- 2.20009 21 20 ack 40 ------- 2 5.0 4.0 2 83
+ 2.205727 12 20 tcp 1040 ---A--- 6 12.0 13.0 1 84
- 2.205727 12 20 tcp 1040 ---A--- 6 12.0 13.0 1 84
r 2.215804 21 20 ack 40 ------- 2 5.0 4.0 2 83
+ 2.215804 20 4 ack 40 ------- 2 5.0 4.0 2 83
- 2.215804 20 4 ack 40 ------- 2 5.0 4.0 2 83
r 2.235807 20 4 ack 40 ------- 2 5.0 4.0 2 83
+ 2.235807 4 20 tcp 1040 ------- 2 4.0 5.0 4 85
- 2.235807 4 20 tcp 1040 ------- 2 4.0 5.0 4 85
r 2.25589 4 20 tcp 1040 ------- 2 4.0 5.0 4 85
+ 2.25589 20 21 tcp 1040 ------- 2 4.0 5.0 4 85
r 2.26581 12 20 tcp 1040 ---A--- 6 12.0 13.0 1 84
+ 2.26581 20 21 tcp 1040 ---A--- 6 12.0 13.0 1 84
d 2.26581 20 21 tcp 1040 ---A--- 6 12.0 13.0 1 84
+ 2.274379 6 20 tcp 1040 ---A--- 3 6.0 7.0 3 86
- 2.274379 6 20 tcp 1040 ---A--- 3 6.0 7.0 3 86
- 2.298575 20 21 tcp 1040 ------- 4 8.0 9.0 2 36
r 2.304462 6 20 tcp 1040 ---A--- 3 6.0 7.0 3 86
+ 2.304462 20 21 tcp 1040 ---A--- 3 6.0 7.0 3 86
r 2.308575 20 21 tcp 1040 ------- 4 8.0 9.0 1 35
+ 2.308575 21 9 tcp 1040 ------- 4 8.0 9.0 1 35
- 2.308575 21 9 tcp 1040 ------- 4 8.0 9.0 1 35
r 2.348658 21 9 tcp 1040 ------- 4 8.0 9.0 1 35
+ 2.348658 9 21 ack 40 ------- 4 9.0 8.0 1 87
- 2.348658 9 21 ack 40 ------- 4 9.0 8.0 1 87
+ 2.361441 14 20 tcp 1040 ---A--- 7 14.0 15.0 1 88
- 2.361441 14 20 tcp 1040 ---A--- 7 14.0 15.0 1 88
r 2.388661 9 21 ack 40 ------- 4 9.0 8.0 1 87
+ 2.388661 21 20 ack 40 ------- 4 9.0 8.0 1 87
- 2.388661 21 20 ack 40 ------- 4 9.0 8.0 1 87
r 2.404375 21 20 ack 40 ------- 4 9.0 8.0 1 87
+ 2.404375 20 8 ack 40 ------- 4 9.0 8.0 1 87
- 2.404375 20 8 ack 40 ------- 4 9.0 8.0 1 87
r 2.431525 14 20 tcp 1040 ---A--- 7 14.0 15.0 1 88
+ 2.431525 20 21 tcp 1040 ---A--- 7 14.0 15.0 1 88
r 2.444379 20 8 ack 40 ------- 4 9.0 8.0 1 87
+ 2.444379 8 20 tcp 1040 ------- 4 8.0 9.0 2 89
- 2.444379 8 20 tcp 1040 ------- 4 8.0 9.0 2 89
+ 2.444379 8 20 tcp 1040 ------- 4 8.0 9.0 3 90
- 2.444462 8 20 tcp 1040 ------- 4 8.0 9.0 3 90
- 2.447146 20 21 tcp 1040 ------- 5 10.0 11.0 1 37
r 2.457146 20 21 tcp 1040 ------- 4 8.0 9.0 2 36
+ 2.457146 21 9 tcp 1040 ------- 4 8.0 9.0 2 36
- 2.457146 21 9 tcp 1040 ------- 4 8.0 9.0 2 36
r 2.484462 8 20 tcp 1040 ------- 4 8.0 9.0 2 89
+ 2.484462 20 21 tcp 1040 ------- 4 8.0 9.0 2 89
r 2.484545 8 20 tcp 1040 ------- 4 8.0 9.0 3 90
+ 2.484545 20 21 tcp 1040 ------- 4 8.0 9.0 3 90
d 2.484545 20 21 tcp 1040 ------- 4 8.0 9.0 3 90
+ 2.487156 16 20 tcp 1040 ---A--- 8 16.0 17.0 1 91
- 2.487156 16 20 tcp 1040 ---A--- 8 16.0 17.0 1 91
r 2.497229 21 9 tcp 1040 ------- 4 8.0 9.0 2 36
+ 2.497229 9 21 ack 40 ------- 4 9.0 8.0 2 92
- 2.497229 9 21 ack 40 ------- 4 9.0 8.0 2 92
r 2.537232 9 21 ack 40 ------- 4 9.0 8.0 2 92
+ 2.537232 21 20 ack 40 ------- 4 9.0 8.0 2 92
- 2.537232 21 20 ack 40 ------- 4 9.0 8.0 2 92
r 2.552947 21 20 ack 40 ------- 4 9.0 8.0 2 92