V -t * -v 1.0a5 -a 0
A -t * -n 1 -p 0 -o 0x7fffffff -c 30 -a 1
A -t * -h 1 -m 1073741823 -s 0
c -t * -i 0 -n red
c -t * -i 1 -n blue
n -t * -a 0 -s 0 -S UP -v circle -c black -i black
n -t * -a 1 -s 1 -S UP -v circle -c black -i black
n -t * -a 2 -s 2 -S UP -v circle -c black -i black
l -t * -s 2 -d 1 -S UP -r 200000 -D 0.10000000000000001 -c black -o right-down
l -t * -s 0 -d 1 -S UP -r 200000 -D 0.10000000000000001 -c black -o right-up
+ -t 0.206465502888018 -s 0 -d 1 -p exp -e 128 -c 0 -i 0 -a 0 -x {0.0 1.0 0 ------- null}
- -t 0.206465502888018 -s 0 -d 1 -p exp -e 128 -c 0 -i 0 -a 0 -x {0.0 1.0 0 ------- null}
h -t 0.206465502888018 -s 0 -d 1 -p exp -e 128 -c 0 -i 0 -a 0 -x {0.0 1.0 -1 ------- null}
+ -t 0.237715502888018 -s 0 -d 1 -p exp -e 128 -c 0 -i 1 -a 0 -x {0.0 1.0 1 ------- null}
- -t 0.237715502888018 -s 0 -d 1 -p exp -e 128 -c 0 -i 1 -a 0 -x {0.0 1.0 1 ------- null}
h -t 0.237715502888018 -s 0 -d 1 -p exp -e 128 -c 0 -i 1 -a 0 -x {0.0 1.0 -1 ------- null}
+ -t 0.268965502888018 -s 0 -d 1 -p exp -e 128 -c 0 -i 2 -a 0 -x {0.0 1.0 2 ------- null}
- -t 0.268965502888018 -s 0 -d 1 -p exp -e 128 -c 0 -i 2 -a 0 -x {0.0 1.0 2 ------- null}
h -t 0.268965502888018 -s 0 -d 1 -p exp -e 128 -c 0 -i 2 -a 0 -x {0.0 1.0 -1 ------- null}
+ -t 0.300215502888018 -s 0 -d 1 -p exp -e 128 -c 0 -i 3 -a 0 -x {0.0 1.0 3 ------- null}
- -t 0.300215502888018 -s 0 -d 1 -p exp -e 128 -c 0 -i 3 -a 0 -x {0.0 1.0 3 ------- null}
h -t 0.300215502888018 -s 0 -d 1 -p exp -e 128 -c 0 -i 3 -a 0 -x {0.0 1.0 -1 ------- null}
r -t 0.311585502888018 -s 0 -d 1 -p exp -e 128 -c 0 -i 0 -a 0 -x {0.0 1.0 0 ------- null}
+ -t 0.331465502888018 -s 0 -d 1 -p exp -e 128 -c 0 -i 4 -a 0 -x {0.0 1.0 4 ------- null}
- -t 0.331465502888018 -s 0 -d 1 -p exp -e 128 -c 0 -i 4 -a 0 -x {0.0 1.0 4 ------- null}
h -t 0.331465502888018 -s 0 -d 1 -p exp -e 128 -c 0 -i 4 -a 0 -x {0.0 1.0 -1 ------- null}
r -t 0.342835502888018 -s 0 -d 1 -p exp -e 128 -c 0 -i 1 -a 0 -x {0.0 1.0 1 ------- null}
+ -t 0.362715502888018 -s 0 -d 1 -p exp -e 128 -c 0 -i 5 -a 0 -x {0.0 1.0 5 ------- null}
- -t 0.362715502888018 -s 0 -d 1 -p exp -e 128 -c 0 -i 5 -a 0 -x {0.0 1.0 5 ------- null}
h -t 0.362715502888018 -s 0 -d 1 -p exp -e 128 -c 0 -i 5 -a 0 -x {0.0 1.0 -1 ------- null}
r -t 0.374085502888018 -s 0 -d 1 -p exp -e 128 -c 0 -i 2 -a 0 -x {0.0 1.0 2 ------- null}
+ -t 0.393965502888018 -s 0 -d 1 -p exp -e 128 -c 0 -i 6 -a 0 -x {0.0 1.0 6 ------- null}
- -t 0.393965502888018 -s 0 -d 1 -p exp -e 128 -c 0 -i 6 -a 0 -x {0.0 1.0 6 ------- null}
h -t 0.393965502888018 -s 0 -d 1 -p exp -e 128 -c 0 -i 6 -a 0 -x {0.0 1.0 -1 ------- null}
r -t 0.405335502888018 -s 0 -d 1 -p exp -e 128 -c 0 -i 3 -a 0 -x {0.0 1.0 3 ------- null}
+ -t 0.425215502888018 -s 0 -d 1 -p exp -e 128 -c 0 -i 7 -a 0 -x {0.0 1.0 7 ------- null}
- -t 0.425215502888018 -s 0 -d 1 -p exp -e 128 -c 0 -i 7 -a 0 -x {0.0 1.0 7 ------- null}
h -t 0.425215502888018 -s 0 -d 1 -p exp -e 128 -c 0 -i 7 -a 0 -x {0.0 1.0 -1 ------- null}
r -t 0.436585502888018 -s 0 -d 1 -p exp -e 128 -c 0 -i 4 -a 0 -x {0.0 1.0 4 ------- null}
+ -t 0.456465502888018 -s 0 -d 1 -p exp -e 128 -c 0 -i 8 -a 0 -x {0.0 1.0 8 ------- null}
- -t 0.456465502888018 -s 0 -d 1 -p exp -e 128 -c 0 -i 8 -a 0 -x {0.0 1.0 8 ------- null}
h -t 0.456465502888018 -s 0 -d 1 -p exp -e 128 -c 0 -i 8 -a 0 -x {0.0 1.0 -1 ------- null}
r -t 0.467835502888018 -s 0 -d 1 -p exp -e 128 -c 0 -i 5 -a 0 -x {0.0 1.0 5 ------- null}
+ -t 0.487715502888018 -s 0 -d 1 -p exp -e 128 -c 0 -i 9 -a 0 -x {0.0 1.0 9 ------- null}
- -t 0.487715502888018 -s 0 -d 1 -p exp -e 128 -c 0 -i 9 -a 0 -x {0.0 1.0 9 ------- null}
h -t 0.487715502888018 -s 0 -d 1 -p exp -e 128 -c 0 -i 9 -a 0 -x {0.0 1.0 -1 ------- null}
r -t 0.499085502888018 -s 0 -d 1 -p exp -e 128 -c 0 -i 6 -a 0 -x {0.0 1.0 6 ------- null}
+ -t 0.518965502888018 -s 0 -d 1 -p exp -e 128 -c 0 -i 10 -a 0 -x {0.0 1.0 10 ------- null}
- -t 0.518965502888018 -s 0 -d 1 -p exp -e 128 -c 0 -i 10 -a 0 -x {0.0 1.0 10 ------- null}
h -t 0.518965502888018 -s 0 -d 1 -p exp -e 128 -c 0 -i 10 -a 0 -x {0.0 1.0 -1 ------- null}
r -t 0.530335502888018 -s 0 -d 1 -p exp -e 128 -c 0 -i 7 -a 0 -x {0.0 1.0 7 ------- null}
+ -t 0.550215502888018 -s 0 -d 1 -p exp -e 128 -c 0 -i 11 -a 0 -x {0.0 1.0 11 ------- null}
- -t 0.550215502888018 -s 0 -d 1 -p exp -e 128 -c 0 -i 11 -a 0 -x {0.0 1.0 11 ------- null}
h -t 0.550215502888018 -s 0 -d 1 -p exp -e 128 -c 0 -i 11 -a 0 -x {0.0 1.0 -1 ------- null}
r -t 0.561585502888018 -s 0 -d 1 -p exp -e 128 -c 0 -i 8 -a 0 -x {0.0 1.0 8 ------- null}
+ -t 0.581465502888018 -s 0 -d 1 -p exp -e 128 -c 0 -i 12 -a 0 -x {0.0 1.0 12 ------- null}
- -t 0.581465502888018 -s 0 -d 1 -p exp -e 128 -c 0 -i 12 -a 0 -x {0.0 1.0 12 ------- null}
h -t 0.581465502888018 -s 0 -d 1 -p exp -e 128 -c 0 -i 12 -a 0 -x {0.0 1.0 -1 ------- null}
r -t 0.592835502888018 -s 0 -d 1 -p exp -e 128 -c 0 -i 9 -a 0 -x {0.0 1.0 9 ------- null}
+ -t 0.612715502888018 -s 0 -d 1 -p exp -e 128 -c 0 -i 13 -a 0 -x {0.0 1.0 13 ------- null}
- -t 0.612715502888018 -s 0 -d 1 -p exp -e 128 -c 0 -i 13 -a 0 -x {0.0 1.0 13 ------- null}
h -t 0.612715502888018 -s 0 -d 1 -p exp -e 128 -c 0 -i 13 -a 0 -x {0.0 1.0 -1 ------- null}
r -t 0.624085502888018 -s 0 -d 1 -p exp -e 128 -c 0 -i 10 -a 0 -x {0.0 1.0 10 ------- null}
+ -t 0.643965502888018 -s 0 -d 1 -p exp -e 128 -c 0 -i 14 -a 0 -x {0.0 1.0 14 ------- null}
- -t 0.643965502888018 -s 0 -d 1 -p exp -e 128 -c 0 -i 14 -a 0 -x {0.0 1.0 14 ------- null}
h -t 0.643965502888018 -s 0 -d 1 -p exp -e 128 -c 0 -i 14 -a 0 -x {0.0 1.0 -1 ------- null}
r -t 0.655335502888018 -s 0 -d 1 -p exp -e 128 -c 0 -i 11 -a 0 -x {0.0 1.0 11 ------- null}
+ -t 0.675215502888018 -s 0 -d 1 -p exp -e 128 -c 0 -i 15 -a 0 -x {0.0 1.0 15 ------- null}
- -t 0.675215502888018 -s 0 -d 1 -p exp -e 128 -c 0 -i 15 -a 0 -x {0.0 1.0 15 ------- null}
h -t 0.675215502888018 -s 0 -d 1 -p exp -e 128 -c 0 -i 15 -a 0 -x {0.0 1.0 -1 ------- null}
r -t 0.686585502888018 -s 0 -d 1 -p exp -e 128 -c 0 -i 12 -a 0 -x {0.0 1.0 12 ------- null}
+ -t 0.706465502888018 -s 0 -d 1 -p exp -e 128 -c 0 -i 16 -a 0 -x {0.0 1.0 16 ------- null}
- -t 0.706465502888018 -s 0 -d 1 -p exp -e 128 -c 0 -i 16 -a 0 -x {0.0 1.0 16 ------- null}
h -t 0.706465502888018 -s 0 -d 1 -p exp -e 128 -c 0 -i 16 -a 0 -x {0.0 1.0 -1 ------- null}
r -t 0.717835502888018 -s 0 -d 1 -p exp -e 128 -c 0 -i 13 -a 0 -x {0.0 1.0 13 ------- null}
+ -t 0.737715502888018 -s 0 -d 1 -p exp -e 128 -c 0 -i 17 -a 0 -x {0.0 1.0 17 ------- null}
- -t 0.737715502888018 -s 0 -d 1 -p exp -e 128 -c 0 -i 17 -a 0 -x {0.0 1.0 17 ------- null}
h -t 0.737715502888018 -s 0 -d 1 -p exp -e 128 -c 0 -i 17 -a 0 -x {0.0 1.0 -1 ------- null}
r -t 0.749085502888018 -s 0 -d 1 -p exp -e 128 -c 0 -i 14 -a 0 -x {0.0 1.0 14 ------- null}
+ -t 0.768965502888018 -s 0 -d 1 -p exp -e 128 -c 0 -i 18 -a 0 -x {0.0 1.0 18 ------- null}
- -t 0.768965502888018 -s 0 -d 1 -p exp -e 128 -c 0 -i 18 -a 0 -x {0.0 1.0 18 ------- null}
h -t 0.768965502888018 -s 0 -d 1 -p exp -e 128 -c 0 -i 18 -a 0 -x {0.0 1.0 -1 ------- null}
r -t 0.780335502888018 -s 0 -d 1 -p exp -e 128 -c 0 -i 15 -a 0 -x {0.0 1.0 15 ------- null}
+ -t 0.800215502888018 -s 0 -d 1 -p exp -e 128 -c 0 -i 19 -a 0 -x {0.0 1.0 19 ------- null}
- -t 0.800215502888018 -s 0 -d 1 -p exp -e 128 -c 0 -i 19 -a 0 -x {0.0 1.0 19 ------- null}
h -t 0.800215502888018 -s 0 -d 1 -p exp -e 128 -c 0 -i 19 -a 0 -x {0.0 1.0 -1 ------- null}
+ -t 0.805058268976702 -s 2 -d 1 -p exp -e 128 -c 1 -i 39 -a 1 -x {2.0 1.0 0 ------- null}
- -t 0.805058268976702 -s 2 -d 1 -p exp -e 128 -c 1 -i 39 -a 1 -x {2.0 1.0 0 ------- null}
h -t 0.805058268976702 -s 2 -d 1 -p exp -e 128 -c 1 -i 39 -a 1 -x {2.0 1.0 -1 ------- null}
r -t 0.811585502888018 -s 0 -d 1 -p exp -e 128 -c 0 -i 16 -a 0 -x {0.0 1.0 16 ------- null}
+ -t 0.820683268976702 -s 2 -d 1 -p exp -e 128 -c 1 -i 41 -a 1 -x {2.0 1.0 1 ------- null}
- -t 0.820683268976702 -s 2 -d 1 -p exp -e 128 -c 1 -i 41 -a 1 -x {2.0 1.0 1 ------- null}
h -t 0.820683268976702 -s 2 -d 1 -p exp -e 128 -c 1 -i 41 -a 1 -x {2.0 1.0 -1 ------- null}
+ -t 0.831465502888018 -s 0 -d 1 -p exp -e 128 -c 0 -i 20 -a 0 -x {0.0 1.0 20 ------- null}
- -t 0.831465502888018 -s 0 -d 1 -p exp -e 128 -c 0 -i 20 -a 0 -x {0.0 1.0 20 ------- null}
h -t 0.831465502888018 -s 0 -d 1 -p exp -e 128 -c 0 -i 20 -a 0 -x {0.0 1.0 -1 ------- null}
+ -t 0.836308268976702 -s 2 -d 1 -p exp -e 128 -c 1 -i 43 -a 1 -x {2.0 1.0 2 ------- null}
- -t 0.836308268976702 -s 2 -d 1 -p exp -e 128 -c 1 -i 43 -a 1 -x {2.0 1.0 2 ------- null}
h -t 0.836308268976702 -s 2 -d 1 -p exp -e 128 -c 1 -i 43 -a 1 -x {2.0 1.0 -1 ------- null}
r -t 0.842835502888018 -s 0 -d 1 -p exp -e 128 -c 0 -i 17 -a 0 -x {0.0 1.0 17 ------- null}
+ -t 0.851933268976702 -s 2 -d 1 -p exp -e 128 -c 1 -i 45 -a 1 -x {2.0 1.0 3 ------- null}
- -t 0.851933268976702 -s 2 -d 1 -p exp -e 128 -c 1 -i 45 -a 1 -x {2.0 1.0 3 ------- null}
h -t 0.851933268976702 -s 2 -d 1 -p exp -e 128 -c 1 -i 45 -a 1 -x {2.0 1.0 -1 ------- null}
+ -t 0.862715502888018 -s 0 -d 1 -p exp -e 128 -c 0 -i 21 -a 0 -x {0.0 1.0 21 ------- null}
- -t 0.862715502888018 -s 0 -d 1 -p exp -e 128 -c 0 -i 21 -a 0 -x {0.0 1.0 21 ------- null}
h -t 0.862715502888018 -s 0 -d 1 -p exp -e 128 -c 0 -i 21 -a 0 -x {0.0 1.0 -1 ------- null}
+ -t 0.867558268976702 -s 2 -d 1 -p exp -e 128 -c 1 -i 47 -a 1 -x {2.0 1.0 4 ------- null}
- -t 0.867558268976702 -s 2 -d 1 -p exp -e 128 -c 1 -i 47 -a 1 -x {2.0 1.0 4 ------- null}
h -t 0.867558268976702 -s 2 -d 1 -p exp -e 128 -c 1 -i 47 -a 1 -x {2.0 1.0 -1 ------- null}
r -t 0.874085502888018 -s 0 -d 1 -p exp -e 128 -c 0 -i 18 -a 0 -x {0.0 1.0 18 ------- null}
+ -t 0.883183268976702 -s 2 -d 1 -p exp -e 128 -c 1 -i 49 -a 1 -x {2.0 1.0 5 ------- null}
- -t 0.883183268976702 -s 2 -d 1 -p exp -e 128 -c 1 -i 49 -a 1 -x {2.0 1.0 5 ------- null}
h -t 0.883183268976702 -s 2 -d 1 -p exp -e 128 -c 1 -i 49 -a 1 -x {2.0 1.0 -1 ------- null}
+ -t 0.893965502888018 -s 0 -d 1 -p exp -e 128 -c 0 -i 22 -a 0 -x {0.0 1.0 22 ------- null}
- -t 0.893965502888018 -s 0 -d 1 -p exp -e 128 -c 0 -i 22 -a 0 -x {0.0 1.0 22 ------- null}
h -t 0.893965502888018 -s 0 -d 1 -p exp -e 128 -c 0 -i 22 -a 0 -x {0.0 1.0 -1 ------- null}
+ -t 0.898808268976702 -s 2 -d 1 -p exp -e 128 -c 1 -i 51 -a 1 -x {2.0 1.0 6 ------- null}
- -t 0.898808268976702 -s 2 -d 1 -p exp -e 128 -c 1 -i 51 -a 1 -x {2.0 1.0 6 ------- null}
h -t 0.898808268976702 -s 2 -d 1 -p exp -e 128 -c 1 -i 51 -a 1 -x {2.0 1.0 -1 ------- null}
r -t 0.905335502888018 -s 0 -d 1 -p exp -e 128 -c 0 -i 19 -a 0 -x {0.0 1.0 19 ------- null}
r -t 0.910178268976702 -s 2 -d 1 -p exp -e 128 -c 1 -i 39 -a 1 -x {2.0 1.0 0 ------- null}
+ -t 0.914433268976702 -s 2 -d 1 -p exp -e 128 -c 1 -i 53 -a 1 -x {2.0 1.0 7 ------- null}
- -t 0.914433268976702 -s 2 -d 1 -p exp -e 128 -c 1 -i 53 -a 1 -x {2.0 1.0 7 ------- null}
h -t 0.914433268976702 -s 2 -d 1 -p exp -e 128 -c 1 -i 53 -a 1 -x {2.0 1.0 -1 ------- null}
+ -t 0.925215502888018 -s 0 -d 1 -p exp -e 128 -c 0 -i 23 -a 0 -x {0.0 1.0 23 ------- null}
- -t 0.925215502888018 -s 0 -d 1 -p exp -e 128 -c 0 -i 23 -a 0 -x {0.0 1.0 23 ------- null}
h -t 0.925215502888018 -s 0 -d 1 -p exp -e 128 -c 0 -i 23 -a 0 -x {0.0 1.0 -1 ------- null}
r -t 0.925803268976702 -s 2 -d 1 -p exp -e 128 -c 1 -i 41 -a 1 -x {2.0 1.0 1 ------- null}
+ -t 0.930058268976702 -s 2 -d 1 -p exp -e 128 -c 1 -i 55 -a 1 -x {2.0 1.0 8 ------- null}
- -t 0.930058268976702 -s 2 -d 1 -p exp -e 128 -c 1 -i 55 -a 1 -x {2.0 1.0 8 ------- null}
h -t 0.930058268976702 -s 2 -d 1 -p exp -e 128 -c 1 -i 55 -a 1 -x {2.0 1.0 -1 ------- null}
r -t 0.936585502888018 -s 0 -d 1 -p exp -e 128 -c 0 -i 20 -a 0 -x {0.0 1.0 20 ------- null}
r -t 0.941428268976702 -s 2 -d 1 -p exp -e 128 -c 1 -i 43 -a 1 -x {2.0 1.0 2 ------- null}
+ -t 0.945683268976702 -s 2 -d 1 -p exp -e 128 -c 1 -i 57 -a 1 -x {2.0 1.0 9 ------- null}
- -t 0.945683268976702 -s 2 -d 1 -p exp -e 128 -c 1 -i 57 -a 1 -x {2.0 1.0 9 ------- null}
h -t 0.945683268976702 -s 2 -d 1 -p exp -e 128 -c 1 -i 57 -a 1 -x {2.0 1.0 -1 ------- null}
+ -t 0.956465502888018 -s 0 -d 1 -p exp -e 128 -c 0 -i 24 -a 0 -x {0.0 1.0 24 ------- null}
- -t 0.956465502888018 -s 0 -d 1 -p exp -e 128 -c 0 -i 24 -a 0 -x {0.0 1.0 24 ------- null}
h -t 0.956465502888018 -s 0 -d 1 -p exp -e 128 -c 0 -i 24 -a 0 -x {0.0 1.0 -1 ------- null}
r -t 0.957053268976702 -s 2 -d 1 -p exp -e 128 -c 1 -i 45 -a 1 -x {2.0 1.0 3 ------- null}
+ -t 0.961308268976702 -s 2 -d 1 -p exp -e 128 -c 1 -i 59 -a 1 -x {2.0 1.0 10 ------- null}
- -t 0.961308268976702 -s 2 -d 1 -p exp -e 128 -c 1 -i 59 -a 1 -x {2.0 1.0 10 ------- null}
h -t 0.961308268976702 -s 2 -d 1 -p exp -e 128 -c 1 -i 59 -a 1 -x {2.0 1.0 -1 ------- null}
r -t 0.967835502888018 -s 0 -d 1 -p exp -e 128 -c 0 -i 21 -a 0 -x {0.0 1.0 21 ------- null}
r -t 0.972678268976702 -s 2 -d 1 -p exp -e 128 -c 1 -i 47 -a 1 -x {2.0 1.0 4 ------- null}
+ -t 0.976933268976702 -s 2 -d 1 -p exp -e 128 -c 1 -i 61 -a 1 -x {2.0 1.0 11 ------- null}
- -t 0.976933268976702 -s 2 -d 1 -p exp -e 128 -c 1 -i 61 -a 1 -x {2.0 1.0 11 ------- null}
h -t 0.976933268976702 -s 2 -d 1 -p exp -e 128 -c 1 -i 61 -a 1 -x {2.0 1.0 -1 ------- null}
+ -t 0.987715502888018 -s 0 -d 1 -p exp -e 128 -c 0 -i 25 -a 0 -x {0.0 1.0 25 ------- null}
- -t 0.987715502888018 -s 0 -d 1 -p exp -e 128 -c 0 -i 25 -a 0 -x {0.0 1.0 25 ------- null}
h -t 0.987715502888018 -s 0 -d 1 -p exp -e 128 -c 0 -i 25 -a 0 -x {0.0 1.0 -1 ------- null}
r -t 0.988303268976702 -s 2 -d 1 -p exp -e 128 -c 1 -i 49 -a 1 -x {2.0 1.0 5 ------- null}
+ -t 0.992558268976702 -s 2 -d 1 -p exp -e 128 -c 1 -i 63 -a 1 -x {2.0 1.0 12 ------- null}
- -t 0.992558268976702 -s 2 -d 1 -p exp -e 128 -c 1 -i 63 -a 1 -x {2.0 1.0 12 ------- null}
h -t 0.992558268976702 -s 2 -d 1 -p exp -e 128 -c 1 -i 63 -a 1 -x {2.0 1.0 -1 ------- null}
r -t 0.999085502888018 -s 0 -d 1 -p exp -e 128 -c 0 -i 22 -a 0 -x {0.0 1.0 22 ------- null}
r -t 1.0039282689767 -s 2 -d 1 -p exp -e 128 -c 1 -i 51 -a 1 -x {2.0 1.0 6 ------- null}
+ -t 1.0081832689767 -s 2 -d 1 -p exp -e 128 -c 1 -i 65 -a 1 -x {2.0 1.0 13 ------- null}
- -t 1.0081832689767 -s 2 -d 1 -p exp -e 128 -c 1 -i 65 -a 1 -x {2.0 1.0 13 ------- null}
h -t 1.0081832689767 -s 2 -d 1 -p exp -e 128 -c 1 -i 65 -a 1 -x {2.0 1.0 -1 ------- null}
+ -t 1.01896550288802 -s 0 -d 1 -p exp -e 128 -c 0 -i 26 -a 0 -x {0.0 1.0 26 ------- null}
- -t 1.01896550288802 -s 0 -d 1 -p exp -e 128 -c 0 -i 26 -a 0 -x {0.0 1.0 26 ------- null}
h -t 1.01896550288802 -s 0 -d 1 -p exp -e 128 -c 0 -i 26 -a 0 -x {0.0 1.0 -1 ------- null}
r -t 1.0195532689767 -s 2 -d 1 -p exp -e 128 -c 1 -i 53 -a 1 -x {2.0 1.0 7 ------- null}
+ -t 1.0238082689767 -s 2 -d 1 -p exp -e 128 -c 1 -i 67 -a 1 -x {2.0 1.0 14 ------- null}
- -t 1.0238082689767 -s 2 -d 1 -p exp -e 128 -c 1 -i 67 -a 1 -x {2.0 1.0 14 ------- null}
h -t 1.0238082689767 -s 2 -d 1 -p exp -e 128 -c 1 -i 67 -a 1 -x {2.0 1.0 -1 ------- null}
r -t 1.03033550288802 -s 0 -d 1 -p exp -e 128 -c 0 -i 23 -a 0 -x {0.0 1.0 23 ------- null}
r -t 1.0351782689767 -s 2 -d 1 -p exp -e 128 -c 1 -i 55 -a 1 -x {2.0 1.0 8 ------- null}
+ -t 1.0394332689767 -s 2 -d 1 -p exp -e 128 -c 1 -i 69 -a 1 -x {2.0 1.0 15 ------- null}
- -t 1.0394332689767 -s 2 -d 1 -p exp -e 128 -c 1 -i 69 -a 1 -x {2.0 1.0 15 ------- null}
h -t 1.0394332689767 -s 2 -d 1 -p exp -e 128 -c 1 -i 69 -a 1 -x {2.0 1.0 -1 ------- null}
+ -t 1.05021550288802 -s 0 -d 1 -p exp -e 128 -c 0 -i 27 -a 0 -x {0.0 1.0 27 ------- null}
- -t 1.05021550288802 -s 0 -d 1 -p exp -e 128 -c 0 -i 27 -a 0 -x {0.0 1.0 27 ------- null}
h -t 1.05021550288802 -s 0 -d 1 -p exp -e 128 -c 0 -i 27 -a 0 -x {0.0 1.0 -1 ------- null}
r -t 1.0508032689767 -s 2 -d 1 -p exp -e 128 -c 1 -i 57 -a 1 -x {2.0 1.0 9 ------- null}
+ -t 1.0550582689767 -s 2 -d 1 -p exp -e 128 -c 1 -i 71 -a 1 -x {2.0 1.0 16 ------- null}
- -t 1.0550582689767 -s 2 -d 1 -p exp -e 128 -c 1 -i 71 -a 1 -x {2.0 1.0 16 ------- null}
h -t 1.0550582689767 -s 2 -d 1 -p exp -e 128 -c 1 -i 71 -a 1 -x {2.0 1.0 -1 ------- null}
r -t 1.06158550288802 -s 0 -d 1 -p exp -e 128 -c 0 -i 24 -a 0 -x {0.0 1.0 24 ------- null}
r -t 1.0664282689767 -s 2 -d 1 -p exp -e 128 -c 1 -i 59 -a 1 -x {2.0 1.0 10 ------- null}
+ -t 1.0706832689767 -s 2 -d 1 -p exp -e 128 -c 1 -i 73 -a 1 -x {2.0 1.0 17 ------- null}
- -t 1.0706832689767 -s 2 -d 1 -p exp -e 128 -c 1 -i 73 -a 1 -x {2.0 1.0 17 ------- null}
h -t 1.0706832689767 -s 2 -d 1 -p exp -e 128 -c 1 -i 73 -a 1 -x {2.0 1.0 -1 ------- null}
+ -t 1.08146550288802 -s 0 -d 1 -p exp -e 128 -c 0 -i 28 -a 0 -x {0.0 1.0 28 ------- null}
- -t 1.08146550288802 -s 0 -d 1 -p exp -e 128 -c 0 -i 28 -a 0 -x {0.0 1.0 28 ------- null}
h -t 1.08146550288802 -s 0 -d 1 -p exp -e 128 -c 0 -i 28 -a 0 -x {0.0 1.0 -1 ------- null}
r -t 1.0820532689767 -s 2 -d 1 -p exp -e 128 -c 1 -i 61 -a 1 -x {2.0 1.0 11 ------- null}
+ -t 1.0863082689767 -s 2 -d 1 -p exp -e 128 -c 1 -i 75 -a 1 -x {2.0 1.0 18 ------- null}
- -t 1.0863082689767 -s 2 -d 1 -p exp -e 128 -c 1 -i 75 -a 1 -x {2.0 1.0 18 ------- null}
h -t 1.0863082689767 -s 2 -d 1 -p exp -e 128 -c 1 -i 75 -a 1 -x {2.0 1.0 -1 ------- null}
r -t 1.09283550288802 -s 0 -d 1 -p exp -e 128 -c 0 -i 25 -a 0 -x {0.0 1.0 25 ------- null}
r -t 1.0976782689767 -s 2 -d 1 -p exp -e 128 -c 1 -i 63 -a 1 -x {2.0 1.0 12 ------- null}
+ -t 1.1019332689767 -s 2 -d 1 -p exp -e 128 -c 1 -i 77 -a 1 -x {2.0 1.0 19 ------- null}
- -t 1.1019332689767 -s 2 -d 1 -p exp -e 128 -c 1 -i 77 -a 1 -x {2.0 1.0 19 ------- null}
h -t 1.1019332689767 -s 2 -d 1 -p exp -e 128 -c 1 -i 77 -a 1 -x {2.0 1.0 -1 ------- null}
+ -t 1.11271550288802 -s 0 -d 1 -p exp -e 128 -c 0 -i 29 -a 0 -x {0.0 1.0 29 ------- null}
- -t 1.11271550288802 -s 0 -d 1 -p exp -e 128 -c 0 -i 29 -a 0 -x {0.0 1.0 29 ------- null}
h -t 1.11271550288802 -s 0 -d 1 -p exp -e 128 -c 0 -i 29 -a 0 -x {0.0 1.0 -1 ------- null}
r -t 1.1133032689767 -s 2 -d 1 -p exp -e 128 -c 1 -i 65 -a 1 -x {2.0 1.0 13 ------- null}
+ -t 1.1175582689767 -s 2 -d 1 -p exp -e 128 -c 1 -i 79 -a 1 -x {2.0 1.0 20 ------- null}
- -t 1.1175582689767 -s 2 -d 1 -p exp -e 128 -c 1 -i 79 -a 1 -x {2.0 1.0 20 ------- null}
h -t 1.1175582689767 -s 2 -d 1 -p exp -e 128 -c 1 -i 79 -a 1 -x {2.0 1.0 -1 ------- null}
r -t 1.12408550288802 -s 0 -d 1 -p exp -e 128 -c 0 -i 26 -a 0 -x {0.0 1.0 26 ------- null}
r -t 1.1289282689767 -s 2 -d 1 -p exp -e 128 -c 1 -i 67 -a 1 -x {2.0 1.0 14 ------- null}
+ -t 1.1331832689767 -s 2 -d 1 -p exp -e 128 -c 1 -i 81 -a 1 -x {2.0 1.0 21 ------- null}
- -t 1.1331832689767 -s 2 -d 1 -p exp -e 128 -c 1 -i 81 -a 1 -x {2.0 1.0 21 ------- null}
h -t 1.1331832689767 -s 2 -d 1 -p exp -e 128 -c 1 -i 81 -a 1 -x {2.0 1.0 -1 ------- null}
+ -t 1.14396550288802 -s 0 -d 1 -p exp -e 128 -c 0 -i 30 -a 0 -x {0.0 1.0 30 ------- null}
- -t 1.14396550288802 -s 0 -d 1 -p exp -e 128 -c 0 -i 30 -a 0 -x {0.0 1.0 30 ------- null}
h -t 1.14396550288802 -s 0 -d 1 -p exp -e 128 -c 0 -i 30 -a 0 -x {0.0 1.0 -1 ------- null}
r -t 1.1445532689767 -s 2 -d 1 -p exp -e 128 -c 1 -i 69 -a 1 -x {2.0 1.0 15 ------- null}
+ -t 1.1488082689767 -s 2 -d 1 -p exp -e 128 -c 1 -i 83 -a 1 -x {2.0 1.0 22 ------- null}
- -t 1.1488082689767 -s 2 -d 1 -p exp -e 128 -c 1 -i 83 -a 1 -x {2.0 1.0 22 ------- null}
h -t 1.1488082689767 -s 2 -d 1 -p exp -e 128 -c 1 -i 83 -a 1 -x {2.0 1.0 -1 ------- null}
r -t 1.15533550288802 -s 0 -d 1 -p exp -e 128 -c 0 -i 27 -a 0 -x {0.0 1.0 27 ------- null}
r -t 1.1601782689767 -s 2 -d 1 -p exp -e 128 -c 1 -i 71 -a 1 -x {2.0 1.0 16 ------- null}
+ -t 1.1644332689767 -s 2 -d 1 -p exp -e 128 -c 1 -i 85 -a 1 -x {2.0 1.0 23 ------- null}
- -t 1.1644332689767 -s 2 -d 1 -p exp -e 128 -c 1 -i 85 -a 1 -x {2.0 1.0 23 ------- null}
h -t 1.1644332689767 -s 2 -d 1 -p exp -e 128 -c 1 -i 85 -a 1 -x {2.0 1.0 -1 ------- null}
+ -t 1.17521550288802 -s 0 -d 1 -p exp -e 128 -c 0 -i 31 -a 0 -x {0.0 1.0 31 ------- null}
- -t 1.17521550288802 -s 0 -d 1 -p exp -e 128 -c 0 -i 31 -a 0 -x {0.0 1.0 31 ------- null}
h -t 1.17521550288802 -s 0 -d 1 -p exp -e 128 -c 0 -i 31 -a 0 -x {0.0 1.0 -1 ------- null}
r -t 1.1758032689767 -s 2 -d 1 -p exp -e 128 -c 1 -i 73 -a 1 -x {2.0 1.0 17 ------- null}
+ -t 1.1800582689767 -s 2 -d 1 -p exp -e 128 -c 1 -i 87 -a 1 -x {2.0 1.0 24 ------- null}
- -t 1.1800582689767 -s 2 -d 1 -p exp -e 128 -c 1 -i 87 -a 1 -x {2.0 1.0 24 ------- null}
h -t 1.1800582689767 -s 2 -d 1 -p exp -e 128 -c 1 -i 87 -a 1 -x {2.0 1.0 -1 ------- null}
r -t 1.18658550288802 -s 0 -d 1 -p exp -e 128 -c 0 -i 28 -a 0 -x {0.0 1.0 28 ------- null}
r -t 1.1914282689767 -s 2 -d 1 -p exp -e 128 -c 1 -i 75 -a 1 -x {2.0 1.0 18 ------- null}
+ -t 1.1956832689767 -s 2 -d 1 -p exp -e 128 -c 1 -i 89 -a 1 -x {2.0 1.0 25 ------- null}
- -t 1.1956832689767 -s 2 -d 1 -p exp -e 128 -c 1 -i 89 -a 1 -x {2.0 1.0 25 ------- null}
h -t 1.1956832689767 -s 2 -d 1 -p exp -e 128 -c 1 -i 89 -a 1 -x {2.0 1.0 -1 ------- null}
+ -t 1.20646550288802 -s 0 -d 1 -p exp -e 128 -c 0 -i 32 -a 0 -x {0.0 1.0 32 ------- null}
- -t 1.20646550288802 -s 0 -d 1 -p exp -e 128 -c 0 -i 32 -a 0 -x {0.0 1.0 32 ------- null}
h -t 1.20646550288802 -s 0 -d 1 -p exp -e 128 -c 0 -i 32 -a 0 -x {0.0 1.0 -1 ------- null}
r -t 1.2070532689767 -s 2 -d 1 -p exp -e 128 -c 1 -i 77 -a 1 -x {2.0 1.0 19 ------- null}
+ -t 1.2113082689767 -s 2 -d 1 -p exp -e 128 -c 1 -i 91 -a 1 -x {2.0 1.0 26 ------- null}
- -t 1.2113082689767 -s 2 -d 1 -p exp -e 128 -c 1 -i 91 -a 1 -x {2.0 1.0 26 ------- null}
h -t 1.2113082689767 -s 2 -d 1 -p exp -e 128 -c 1 -i 91 -a 1 -x {2.0 1.0 -1 ------- null}
r -t 1.21783550288802 -s 0 -d 1 -p exp -e 128 -c 0 -i 29 -a 0 -x {0.0 1.0 29 ------- null}
r -t 1.2226782689767 -s 2 -d 1 -p exp -e 128 -c 1 -i 79 -a 1 -x {2.0 1.0 20 ------- null}
+ -t 1.2269332689767 -s 2 -d 1 -p exp -e 128 -c 1 -i 93 -a 1 -x {2.0 1.0 27 ------- null}
- -t 1.2269332689767 -s 2 -d 1 -p exp -e 128 -c 1 -i 93 -a 1 -x {2.0 1.0 27 ------- null}
h -t 1.2269332689767 -s 2 -d 1 -p exp -e 128 -c 1 -i 93 -a 1 -x {2.0 1.0 -1 ------- null}
+ -t 1.23771550288802 -s 0 -d 1 -p exp -e 128 -c 0 -i 33 -a 0 -x {0.0 1.0 33 ------- null}
- -t 1.23771550288802 -s 0 -d 1 -p exp -e 128 -c 0 -i 33 -a 0 -x {0.0 1.0 33 ------- null}
h -t 1.23771550288802 -s 0 -d 1 -p exp -e 128 -c 0 -i 33 -a 0 -x {0.0 1.0 -1 ------- null}
r -t 1.2383032689767 -s 2 -d 1 -p exp -e 128 -c 1 -i 81 -a 1 -x {2.0 1.0 21 ------- null}
+ -t 1.2425582689767 -s 2 -d 1 -p exp -e 128 -c 1 -i 95 -a 1 -x {2.0 1.0 28 ------- null}
- -t 1.2425582689767 -s 2 -d 1 -p exp -e 128 -c 1 -i 95 -a 1 -x {2.0 1.0 28 ------- null}
h -t 1.2425582689767 -s 2 -d 1 -p exp -e 128 -c 1 -i 95 -a 1 -x {2.0 1.0 -1 ------- null}
r -t 1.24908550288802 -s 0 -d 1 -p exp -e 128 -c 0 -i 30 -a 0 -x {0.0 1.0 30 ------- null}
r -t 1.2539282689767 -s 2 -d 1 -p exp -e 128 -c 1 -i 83 -a 1 -x {2.0 1.0 22 ------- null}
+ -t 1.2581832689767 -s 2 -d 1 -p exp -e 128 -c 1 -i 97 -a 1 -x {2.0 1.0 29 ------- null}
- -t 1.2581832689767 -s 2 -d 1 -p exp -e 128 -c 1 -i 97 -a 1 -x {2.0 1.0 29 ------- null}
h -t 1.2581832689767 -s 2 -d 1 -p exp -e 128 -c 1 -i 97 -a 1 -x {2.0 1.0 -1 ------- null}
+ -t 1.26896550288802 -s 0 -d 1 -p exp -e 128 -c 0 -i 34 -a 0 -x {0.0 1.0 34 ------- null}
- -t 1.26896550288802 -s 0 -d 1 -p exp -e 128 -c 0 -i 34 -a 0 -x {0.0 1.0 34 ------- null}
h -t 1.26896550288802 -s 0 -d 1 -p exp -e 128 -c 0 -i 34 -a 0 -x {0.0 1.0 -1 ------- null}
r -t 1.2695532689767 -s 2 -d 1 -p exp -e 128 -c 1 -i 85 -a 1 -x {2.0 1.0 23 ------- null}
+ -t 1.2738082689767 -s 2 -d 1 -p exp -e 128 -c 1 -i 99 -a 1 -x {2.0 1.0 30 ------- null}
- -t 1.2738082689767 -s 2 -d 1 -p exp -e 128 -c 1 -i 99 -a 1 -x {2.0 1.0 30 ------- null}
h -t 1.2738082689767 -s 2 -d 1 -p exp -e 128 -c 1 -i 99 -a 1 -x {2.0 1.0 -1 ------- null}
r -t 1.28033550288802 -s 0 -d 1 -p exp -e 128 -c 0 -i 31 -a 0 -x {0.0 1.0 31 ------- null}
r -t 1.2851782689767 -s 2 -d 1 -p exp -e 128 -c 1 -i 87 -a 1 -x {2.0 1.0 24 ------- null}
+ -t 1.2894332689767 -s 2 -d 1 -p exp -e 128 -c 1 -i 101 -a 1 -x {2.0 1.0 31 ------- null}
- -t 1.2894332689767 -s 2 -d 1 -p exp -e 128 -c 1 -i 101 -a 1 -x {2.0 1.0 31 ------- null}
h -t 1.2894332689767 -s 2 -d 1 -p exp -e 128 -c 1 -i 101 -a 1 -x {2.0 1.0 -1 ------- null}
+ -t 1.30021550288802 -s 0 -d 1 -p exp -e 128 -c 0 -i 35 -a 0 -x {0.0 1.0 35 ------- null}
- -t 1.30021550288802 -s 0 -d 1 -p exp -e 128 -c 0 -i 35 -a 0 -x {0.0 1.0 35 ------- null}
h -t 1.30021550288802 -s 0 -d 1 -p exp -e 128 -c 0 -i 35 -a 0 -x {0.0 1.0 -1 ------- null}
r -t 1.3008032689767 -s 2 -d 1 -p exp -e 128 -c 1 -i 89 -a 1 -x {2.0 1.0 25 ------- null}
+ -t 1.3050582689767 -s 2 -d 1 -p exp -e 128 -c 1 -i 103 -a 1 -x {2.0 1.0 32 ------- null}
- -t 1.3050582689767 -s 2 -d 1 -p exp -e 128 -c 1 -i 103 -a 1 -x {2.0 1.0 32 ------- null}
h -t 1.3050582689767 -s 2 -d 1 -p exp -e 128 -c 1 -i 103 -a 1 -x {2.0 1.0 -1 ------- null}
r -t 1.31158550288802 -s 0 -d 1 -p exp -e 128 -c 0 -i 32 -a 0 -x {0.0 1.0 32 ------- null}
r -t 1.3164282689767 -s 2 -d 1 -p exp -e 128 -c 1 -i 91 -a 1 -x {2.0 1.0 26 ------- null}
+ -t 1.3206832689767 -s 2 -d 1 -p exp -e 128 -c 1 -i 105 -a 1 -x {2.0 1.0 33 ------- null}
- -t 1.3206832689767 -s 2 -d 1 -p exp -e 128 -c 1 -i 105 -a 1 -x {2.0 1.0 33 ------- null}
h -t 1.3206832689767 -s 2 -d 1 -p exp -e 128 -c 1 -i 105 -a 1 -x {2.0 1.0 -1 ------- null}
+ -t 1.33146550288802 -s 0 -d 1 -p exp -e 128 -c 0 -i 36 -a 0 -x {0.0 1.0 36 ------- null}
- -t 1.33146550288802 -s 0 -d 1 -p exp -e 128 -c 0 -i 36 -a 0 -x {0.0 1.0 36 ------- null}
h -t 1.33146550288802 -s 0 -d 1 -p exp -e 128 -c 0 -i 36 -a 0 -x {0.0 1.0 -1 ------- null}
r -t 1.3320532689767 -s 2 -d 1 -p exp -e 128 -c 1 -i 93 -a 1 -x {2.0 1.0 27 ------- null}
+ -t 1.3363082689767 -s 2 -d 1 -p exp -e 128 -c 1 -i 107 -a 1 -x {2.0 1.0 34 ------- null}
- -t 1.3363082689767 -s 2 -d 1 -p exp -e 128 -c 1 -i 107 -a 1 -x {2.0 1.0 34 ------- null}
h -t 1.3363082689767 -s 2 -d 1 -p exp -e 128 -c 1 -i 107 -a 1 -x {2.0 1.0 -1 ------- null}
r -t 1.34283550288802 -s 0 -d 1 -p exp -e 128 -c 0 -i 33 -a 0 -x {0.0 1.0 33 ------- null}
r -t 1.3476782689767 -s 2 -d 1 -p exp -e 128 -c 1 -i 95 -a 1 -x {2.0 1.0 28 ------- null}
+ -t 1.3519332689767 -s 2 -d 1 -p exp -e 128 -c 1 -i 109 -a 1 -x {2.0 1.0 35 ------- null}
- -t 1.3519332689767 -s 2 -d 1 -p exp -e 128 -c 1 -i 109 -a 1 -x {2.0 1.0 35 ------- null}
h -t 1.3519332689767 -s 2 -d 1 -p exp -e 128 -c 1 -i 109 -a 1 -x {2.0 1.0 -1 ------- null}
+ -t 1.36271550288802 -s 0 -d 1 -p exp -e 128 -c 0 -i 37 -a 0 -x {0.0 1.0 37 ------- null}
- -t 1.36271550288802 -s 0 -d 1 -p exp -e 128 -c 0 -i 37 -a 0 -x {0.0 1.0 37 ------- null}
h -t 1.36271550288802 -s 0 -d 1 -p exp -e 128 -c 0 -i 37 -a 0 -x {0.0 1.0 -1 ------- null}
r -t 1.3633032689767 -s 2 -d 1 -p exp -e 128 -c 1 -i 97 -a 1 -x {2.0 1.0 29 ------- null}
+ -t 1.3675582689767 -s 2 -d 1 -p exp -e 128 -c 1 -i 111 -a 1 -x {2.0 1.0 36 ------- null}
- -t 1.3675582689767 -s 2 -d 1 -p exp -e 128 -c 1 -i 111 -a 1 -x {2.0 1.0 36 ------- null}
h -t 1.3675582689767 -s 2 -d 1 -p exp -e 128 -c 1 -i 111 -a 1 -x {2.0 1.0 -1 ------- null}
r -t 1.37408550288802 -s 0 -d 1 -p exp -e 128 -c 0 -i 34 -a 0 -x {0.0 1.0 34 ------- null}
r -t 1.3789282689767 -s 2 -d 1 -p exp -e 128 -c 1 -i 99 -a 1 -x {2.0 1.0 30 ------- null}
+ -t 1.3831832689767 -s 2 -d 1 -p exp -e 128 -c 1 -i 113 -a 1 -x {2.0 1.0 37 ------- null}
- -t 1.3831832689767 -s 2 -d 1 -p exp -e 128 -c 1 -i 113 -a 1 -x {2.0 1.0 37 ------- null}
h -t 1.3831832689767 -s 2 -d 1 -p exp -e 128 -c 1 -i 113 -a 1 -x {2.0 1.0 -1 ------- null}
+ -t 1.39396550288802 -s 0 -d 1 -p exp -e 128 -c 0 -i 38 -a 0 -x {0.0 1.0 38 ------- null}
- -t 1.39396550288802 -s 0 -d 1 -p exp -e 128 -c 0 -i 38 -a 0 -x {0.0 1.0 38 ------- null}
h -t 1.39396550288802 -s 0 -d 1 -p exp -e 128 -c 0 -i 38 -a 0 -x {0.0 1.0 -1 ------- null}
r -t 1.3945532689767 -s 2 -d 1 -p exp -e 128 -c 1 -i 101 -a 1 -x {2.0 1.0 31 ------- null}
+ -t 1.3988082689767 -s 2 -d 1 -p exp -e 128 -c 1 -i 115 -a 1 -x {2.0 1.0 38 ------- null}
- -t 1.3988082689767 -s 2 -d 1 -p exp -e 128 -c 1 -i 115 -a 1 -x {2.0 1.0 38 ------- null}
h -t 1.3988082689767 -s 2 -d 1 -p exp -e 128 -c 1 -i 115 -a 1 -x {2.0 1.0 -1 ------- null}
r -t 1.40533550288802 -s 0 -d 1 -p exp -e 128 -c 0 -i 35 -a 0 -x {0.0 1.0 35 ------- null}
r -t 1.4101782689767 -s 2 -d 1 -p exp -e 128 -c 1 -i 103 -a 1 -x {2.0 1.0 32 ------- null}
+ -t 1.4144332689767 -s 2 -d 1 -p exp -e 128 -c 1 -i 117 -a 1 -x {2.0 1.0 39 ------- null}
- -t 1.4144332689767 -s 2 -d 1 -p exp -e 128 -c 1 -i 117 -a 1 -x {2.0 1.0 39 ------- null}
h -t 1.4144332689767 -s 2 -d 1 -p exp -e 128 -c 1 -i 117 -a 1 -x {2.0 1.0 -1 ------- null}
+ -t 1.42521550288802 -s 0 -d 1 -p exp -e 128 -c 0 -i 40 -a 0 -x {0.0 1.0 39 ------- null}
- -t 1.42521550288802 -s 0 -d 1 -p exp -e 128 -c 0 -i 40 -a 0 -x {0.0 1.0 39 ------- null}
h -t 1.42521550288802 -s 0 -d 1 -p exp -e 128 -c 0 -i 40 -a 0 -x {0.0 1.0 -1 ------- null}
r -t 1.4258032689767 -s 2 -d 1 -p exp -e 128 -c 1 -i 105 -a 1 -x {2.0 1.0 33 ------- null}
+ -t 1.4300582689767 -s 2 -d 1 -p exp -e 128 -c 1 -i 119 -a 1 -x {2.0 1.0 40 ------- null}
- -t 1.4300582689767 -s 2 -d 1 -p exp -e 128 -c 1 -i 119 -a 1 -x {2.0 1.0 40 ------- null}
h -t 1.4300582689767 -s 2 -d 1 -p exp -e 128 -c 1 -i 119 -a 1 -x {2.0 1.0 -1 ------- null}
r -t 1.43658550288802 -s 0 -d 1 -p exp -e 128 -c 0 -i 36 -a 0 -x {0.0 1.0 36 ------- null}
r -t 1.4414282689767 -s 2 -d 1 -p exp -e 128 -c 1 -i 107 -a 1 -x {2.0 1.0 34 ------- null}
+ -t 1.4456832689767 -s 2 -d 1 -p exp -e 128 -c 1 -i 121 -a 1 -x {2.0 1.0 41 ------- null}
- -t 1.4456832689767 -s 2 -d 1 -p exp -e 128 -c 1 -i 121 -a 1 -x {2.0 1.0 41 ------- null}
h -t 1.4456832689767 -s 2 -d 1 -p exp -e 128 -c 1 -i 121 -a 1 -x {2.0 1.0 -1 ------- null}
+ -t 1.45646550288802 -s 0 -d 1 -p exp -e 128 -c 0 -i 42 -a 0 -x {0.0 1.0 40 ------- null}
- -t 1.45646550288802 -s 0 -d 1 -p exp -e 128 -c 0 -i 42 -a 0 -x {0.0 1.0 40 ------- null}
h -t 1.45646550288802 -s 0 -d 1 -p exp -e 128 -c 0 -i 42 -a 0 -x {0.0 1.0 -1 ------- null}
r -t 1.4570532689767 -s 2 -d 1 -p exp -e 128 -c 1 -i 109 -a 1 -x {2.0 1.0 35 ------- null}
+ -t 1.4613082689767 -s 2 -d 1 -p exp -e 128 -c 1 -i 123 -a 1 -x {2.0 1.0 42 ------- null}
- -t 1.4613082689767 -s 2 -d 1 -p exp -e 128 -c 1 -i 123 -a 1 -x {2.0 1.0 42 ------- null}
h -t 1.4613082689767 -s 2 -d 1 -p exp -e 128 -c 1 -i 123 -a 1 -x {2.0 1.0 -1 ------- null}