+ 0.206466 0 1 exp 128 ------- 0 0.0 1.0 0 0
- 0.206466 0 1 exp 128 ------- 0 0.0 1.0 0 0
+ 0.237716 0 1 exp 128 ------- 0 0.0 1.0 1 1
- 0.237716 0 1 exp 128 ------- 0 0.0 1.0 1 1
+ 0.268966 0 1 exp 128 ------- 0 0.0 1.0 2 2
- 0.268966 0 1 exp 128 ------- 0 0.0 1.0 2 2
+ 0.300216 0 1 exp 128 ------- 0 0.0 1.0 3 3
- 0.300216 0 1 exp 128 ------- 0 0.0 1.0 3 3
r 0.311586 0 1 exp 128 ------- 0 0.0 1.0 0 0
+ 0.331466 0 1 exp 128 ------- 0 0.0 1.0 4 4
- 0.331466 0 1 exp 128 ------- 0 0.0 1.0 4 4
r 0.342836 0 1 exp 128 ------- 0 0.0 1.0 1 1
+ 0.362716 0 1 exp 128 ------- 0 0.0 1.0 5 5
- 0.362716 0 1 exp 128 ------- 0 0.0 1.0 5 5
r 0.374086 0 1 exp 128 ------- 0 0.0 1.0 2 2
+ 0.393966 0 1 exp 128 ------- 0 0.0 1.0 6 6
- 0.393966 0 1 exp 128 ------- 0 0.0 1.0 6 6
r 0.405336 0 1 exp 128 ------- 0 0.0 1.0 3 3
+ 0.425216 0 1 exp 128 ------- 0 0.0 1.0 7 7
- 0.425216 0 1 exp 128 ------- 0 0.0 1.0 7 7
r 0.436586 0 1 exp 128 ------- 0 0.0 1.0 4 4
+ 0.456466 0 1 exp 128 ------- 0 0.0 1.0 8 8
- 0.456466 0 1 exp 128 ------- 0 0.0 1.0 8 8
r 0.467836 0 1 exp 128 ------- 0 0.0 1.0 5 5
+ 0.487716 0 1 exp 128 ------- 0 0.0 1.0 9 9
- 0.487716 0 1 exp 128 ------- 0 0.0 1.0 9 9
r 0.499086 0 1 exp 128 ------- 0 0.0 1.0 6 6
+ 0.518966 0 1 exp 128 ------- 0 0.0 1.0 10 10
- 0.518966 0 1 exp 128 ------- 0 0.0 1.0 10 10
r 0.530336 0 1 exp 128 ------- 0 0.0 1.0 7 7
+ 0.550216 0 1 exp 128 ------- 0 0.0 1.0 11 11
- 0.550216 0 1 exp 128 ------- 0 0.0 1.0 11 11
r 0.561586 0 1 exp 128 ------- 0 0.0 1.0 8 8
+ 0.581466 0 1 exp 128 ------- 0 0.0 1.0 12 12
- 0.581466 0 1 exp 128 ------- 0 0.0 1.0 12 12
r 0.592836 0 1 exp 128 ------- 0 0.0 1.0 9 9
+ 0.612716 0 1 exp 128 ------- 0 0.0 1.0 13 13
- 0.612716 0 1 exp 128 ------- 0 0.0 1.0 13 13
r 0.624086 0 1 exp 128 ------- 0 0.0 1.0 10 10
+ 0.643966 0 1 exp 128 ------- 0 0.0 1.0 14 14
- 0.643966 0 1 exp 128 ------- 0 0.0 1.0 14 14
r 0.655336 0 1 exp 128 ------- 0 0.0 1.0 11 11
+ 0.675216 0 1 exp 128 ------- 0 0.0 1.0 15 15
- 0.675216 0 1 exp 128 ------- 0 0.0 1.0 15 15
r 0.686586 0 1 exp 128 ------- 0 0.0 1.0 12 12
+ 0.706466 0 1 exp 128 ------- 0 0.0 1.0 16 16
- 0.706466 0 1 exp 128 ------- 0 0.0 1.0 16 16
r 0.717836 0 1 exp 128 ------- 0 0.0 1.0 13 13
+ 0.737716 0 1 exp 128 ------- 0 0.0 1.0 17 17
- 0.737716 0 1 exp 128 ------- 0 0.0 1.0 17 17
r 0.749086 0 1 exp 128 ------- 0 0.0 1.0 14 14
+ 0.768966 0 1 exp 128 ------- 0 0.0 1.0 18 18
- 0.768966 0 1 exp 128 ------- 0 0.0 1.0 18 18
r 0.780336 0 1 exp 128 ------- 0 0.0 1.0 15 15
+ 0.800216 0 1 exp 128 ------- 0 0.0 1.0 19 19
- 0.800216 0 1 exp 128 ------- 0 0.0 1.0 19 19
+ 0.805058 2 1 exp 128 ------- 1 2.0 1.0 0 39
- 0.805058 2 1 exp 128 ------- 1 2.0 1.0 0 39
r 0.811586 0 1 exp 128 ------- 0 0.0 1.0 16 16
+ 0.820683 2 1 exp 128 ------- 1 2.0 1.0 1 41
- 0.820683 2 1 exp 128 ------- 1 2.0 1.0 1 41
+ 0.831466 0 1 exp 128 ------- 0 0.0 1.0 20 20
- 0.831466 0 1 exp 128 ------- 0 0.0 1.0 20 20
+ 0.836308 2 1 exp 128 ------- 1 2.0 1.0 2 43
- 0.836308 2 1 exp 128 ------- 1 2.0 1.0 2 43
r 0.842836 0 1 exp 128 ------- 0 0.0 1.0 17 17
+ 0.851933 2 1 exp 128 ------- 1 2.0 1.0 3 45
- 0.851933 2 1 exp 128 ------- 1 2.0 1.0 3 45
+ 0.862716 0 1 exp 128 ------- 0 0.0 1.0 21 21
- 0.862716 0 1 exp 128 ------- 0 0.0 1.0 21 21
+ 0.867558 2 1 exp 128 ------- 1 2.0 1.0 4 47
- 0.867558 2 1 exp 128 ------- 1 2.0 1.0 4 47
r 0.874086 0 1 exp 128 ------- 0 0.0 1.0 18 18
+ 0.883183 2 1 exp 128 ------- 1 2.0 1.0 5 49
- 0.883183 2 1 exp 128 ------- 1 2.0 1.0 5 49
+ 0.893966 0 1 exp 128 ------- 0 0.0 1.0 22 22
- 0.893966 0 1 exp 128 ------- 0 0.0 1.0 22 22
+ 0.898808 2 1 exp 128 ------- 1 2.0 1.0 6 51
- 0.898808 2 1 exp 128 ------- 1 2.0 1.0 6 51
r 0.905336 0 1 exp 128 ------- 0 0.0 1.0 19 19
r 0.910178 2 1 exp 128 ------- 1 2.0 1.0 0 39
+ 0.914433 2 1 exp 128 ------- 1 2.0 1.0 7 53
- 0.914433 2 1 exp 128 ------- 1 2.0 1.0 7 53
+ 0.925216 0 1 exp 128 ------- 0 0.0 1.0 23 23
- 0.925216 0 1 exp 128 ------- 0 0.0 1.0 23 23
r 0.925803 2 1 exp 128 ------- 1 2.0 1.0 1 41
+ 0.930058 2 1 exp 128 ------- 1 2.0 1.0 8 55
- 0.930058 2 1 exp 128 ------- 1 2.0 1.0 8 55
r 0.936586 0 1 exp 128 ------- 0 0.0 1.0 20 20
r 0.941428 2 1 exp 128 ------- 1 2.0 1.0 2 43
+ 0.945683 2 1 exp 128 ------- 1 2.0 1.0 9 57
- 0.945683 2 1 exp 128 ------- 1 2.0 1.0 9 57
+ 0.956466 0 1 exp 128 ------- 0 0.0 1.0 24 24
- 0.956466 0 1 exp 128 ------- 0 0.0 1.0 24 24
r 0.957053 2 1 exp 128 ------- 1 2.0 1.0 3 45
+ 0.961308 2 1 exp 128 ------- 1 2.0 1.0 10 59
- 0.961308 2 1 exp 128 ------- 1 2.0 1.0 10 59
r 0.967836 0 1 exp 128 ------- 0 0.0 1.0 21 21
r 0.972678 2 1 exp 128 ------- 1 2.0 1.0 4 47
+ 0.976933 2 1 exp 128 ------- 1 2.0 1.0 11 61
- 0.976933 2 1 exp 128 ------- 1 2.0 1.0 11 61
+ 0.987716 0 1 exp 128 ------- 0 0.0 1.0 25 25
- 0.987716 0 1 exp 128 ------- 0 0.0 1.0 25 25
r 0.988303 2 1 exp 128 ------- 1 2.0 1.0 5 49
+ 0.992558 2 1 exp 128 ------- 1 2.0 1.0 12 63
- 0.992558 2 1 exp 128 ------- 1 2.0 1.0 12 63
r 0.999086 0 1 exp 128 ------- 0 0.0 1.0 22 22
r 1.003928 2 1 exp 128 ------- 1 2.0 1.0 6 51
+ 1.008183 2 1 exp 128 ------- 1 2.0 1.0 13 65
- 1.008183 2 1 exp 128 ------- 1 2.0 1.0 13 65
+ 1.018966 0 1 exp 128 ------- 0 0.0 1.0 26 26
- 1.018966 0 1 exp 128 ------- 0 0.0 1.0 26 26
r 1.019553 2 1 exp 128 ------- 1 2.0 1.0 7 53
+ 1.023808 2 1 exp 128 ------- 1 2.0 1.0 14 67
- 1.023808 2 1 exp 128 ------- 1 2.0 1.0 14 67
r 1.030336 0 1 exp 128 ------- 0 0.0 1.0 23 23
r 1.035178 2 1 exp 128 ------- 1 2.0 1.0 8 55
+ 1.039433 2 1 exp 128 ------- 1 2.0 1.0 15 69
- 1.039433 2 1 exp 128 ------- 1 2.0 1.0 15 69
+ 1.050216 0 1 exp 128 ------- 0 0.0 1.0 27 27
- 1.050216 0 1 exp 128 ------- 0 0.0 1.0 27 27
r 1.050803 2 1 exp 128 ------- 1 2.0 1.0 9 57
+ 1.055058 2 1 exp 128 ------- 1 2.0 1.0 16 71
- 1.055058 2 1 exp 128 ------- 1 2.0 1.0 16 71
r 1.061586 0 1 exp 128 ------- 0 0.0 1.0 24 24
r 1.066428 2 1 exp 128 ------- 1 2.0 1.0 10 59
+ 1.070683 2 1 exp 128 ------- 1 2.0 1.0 17 73
- 1.070683 2 1 exp 128 ------- 1 2.0 1.0 17 73
+ 1.081466 0 1 exp 128 ------- 0 0.0 1.0 28 28
- 1.081466 0 1 exp 128 ------- 0 0.0 1.0 28 28
r 1.082053 2 1 exp 128 ------- 1 2.0 1.0 11 61
+ 1.086308 2 1 exp 128 ------- 1 2.0 1.0 18 75
- 1.086308 2 1 exp 128 ------- 1 2.0 1.0 18 75
r 1.092836 0 1 exp 128 ------- 0 0.0 1.0 25 25
r 1.097678 2 1 exp 128 ------- 1 2.0 1.0 12 63
+ 1.101933 2 1 exp 128 ------- 1 2.0 1.0 19 77
- 1.101933 2 1 exp 128 ------- 1 2.0 1.0 19 77
+ 1.112716 0 1 exp 128 ------- 0 0.0 1.0 29 29
- 1.112716 0 1 exp 128 ------- 0 0.0 1.0 29 29
r 1.113303 2 1 exp 128 ------- 1 2.0 1.0 13 65
+ 1.117558 2 1 exp 128 ------- 1 2.0 1.0 20 79
- 1.117558 2 1 exp 128 ------- 1 2.0 1.0 20 79
r 1.124086 0 1 exp 128 ------- 0 0.0 1.0 26 26
r 1.128928 2 1 exp 128 ------- 1 2.0 1.0 14 67
+ 1.133183 2 1 exp 128 ------- 1 2.0 1.0 21 81
- 1.133183 2 1 exp 128 ------- 1 2.0 1.0 21 81
+ 1.143966 0 1 exp 128 ------- 0 0.0 1.0 30 30
- 1.143966 0 1 exp 128 ------- 0 0.0 1.0 30 30
r 1.144553 2 1 exp 128 ------- 1 2.0 1.0 15 69
+ 1.148808 2 1 exp 128 ------- 1 2.0 1.0 22 83
- 1.148808 2 1 exp 128 ------- 1 2.0 1.0 22 83
r 1.155336 0 1 exp 128 ------- 0 0.0 1.0 27 27
r 1.160178 2 1 exp 128 ------- 1 2.0 1.0 16 71
+ 1.164433 2 1 exp 128 ------- 1 2.0 1.0 23 85
- 1.164433 2 1 exp 128 ------- 1 2.0 1.0 23 85
+ 1.175216 0 1 exp 128 ------- 0 0.0 1.0 31 31
- 1.175216 0 1 exp 128 ------- 0 0.0 1.0 31 31
r 1.175803 2 1 exp 128 ------- 1 2.0 1.0 17 73
+ 1.180058 2 1 exp 128 ------- 1 2.0 1.0 24 87
- 1.180058 2 1 exp 128 ------- 1 2.0 1.0 24 87
r 1.186586 0 1 exp 128 ------- 0 0.0 1.0 28 28
r 1.191428 2 1 exp 128 ------- 1 2.0 1.0 18 75
+ 1.195683 2 1 exp 128 ------- 1 2.0 1.0 25 89
- 1.195683 2 1 exp 128 ------- 1 2.0 1.0 25 89
+ 1.206466 0 1 exp 128 ------- 0 0.0 1.0 32 32
- 1.206466 0 1 exp 128 ------- 0 0.0 1.0 32 32
r 1.207053 2 1 exp 128 ------- 1 2.0 1.0 19 77
+ 1.211308 2 1 exp 128 ------- 1 2.0 1.0 26 91
- 1.211308 2 1 exp 128 ------- 1 2.0 1.0 26 91
r 1.217836 0 1 exp 128 ------- 0 0.0 1.0 29 29
r 1.222678 2 1 exp 128 ------- 1 2.0 1.0 20 79
+ 1.226933 2 1 exp 128 ------- 1 2.0 1.0 27 93
- 1.226933 2 1 exp 128 ------- 1 2.0 1.0 27 93
+ 1.237716 0 1 exp 128 ------- 0 0.0 1.0 33 33
- 1.237716 0 1 exp 128 ------- 0 0.0 1.0 33 33
r 1.238303 2 1 exp 128 ------- 1 2.0 1.0 21 81
+ 1.242558 2 1 exp 128 ------- 1 2.0 1.0 28 95
- 1.242558 2 1 exp 128 ------- 1 2.0 1.0 28 95
r 1.249086 0 1 exp 128 ------- 0 0.0 1.0 30 30
r 1.253928 2 1 exp 128 ------- 1 2.0 1.0 22 83
+ 1.258183 2 1 exp 128 ------- 1 2.0 1.0 29 97
- 1.258183 2 1 exp 128 ------- 1 2.0 1.0 29 97
+ 1.268966 0 1 exp 128 ------- 0 0.0 1.0 34 34
- 1.268966 0 1 exp 128 ------- 0 0.0 1.0 34 34
r 1.269553 2 1 exp 128 ------- 1 2.0 1.0 23 85
+ 1.273808 2 1 exp 128 ------- 1 2.0 1.0 30 99
- 1.273808 2 1 exp 128 ------- 1 2.0 1.0 30 99
r 1.280336 0 1 exp 128 ------- 0 0.0 1.0 31 31
r 1.285178 2 1 exp 128 ------- 1 2.0 1.0 24 87
+ 1.289433 2 1 exp 128 ------- 1 2.0 1.0 31 101
- 1.289433 2 1 exp 128 ------- 1 2.0 1.0 31 101
+ 1.300216 0 1 exp 128 ------- 0 0.0 1.0 35 35
- 1.300216 0 1 exp 128 ------- 0 0.0 1.0 35 35
r 1.300803 2 1 exp 128 ------- 1 2.0 1.0 25 89
+ 1.305058 2 1 exp 128 ------- 1 2.0 1.0 32 103
- 1.305058 2 1 exp 128 ------- 1 2.0 1.0 32 103
r 1.311586 0 1 exp 128 ------- 0 0.0 1.0 32 32
r 1.316428 2 1 exp 128 ------- 1 2.0 1.0 26 91
+ 1.320683 2 1 exp 128 ------- 1 2.0 1.0 33 105
- 1.320683 2 1 exp 128 ------- 1 2.0 1.0 33 105
+ 1.331466 0 1 exp 128 ------- 0 0.0 1.0 36 36
- 1.331466 0 1 exp 128 ------- 0 0.0 1.0 36 36
r 1.332053 2 1 exp 128 ------- 1 2.0 1.0 27 93
+ 1.336308 2 1 exp 128 ------- 1 2.0 1.0 34 107
- 1.336308 2 1 exp 128 ------- 1 2.0 1.0 34 107
r 1.342836 0 1 exp 128 ------- 0 0.0 1.0 33 33
r 1.347678 2 1 exp 128 ------- 1 2.0 1.0 28 95
+ 1.351933 2 1 exp 128 ------- 1 2.0 1.0 35 109
- 1.351933 2 1 exp 128 ------- 1 2.0 1.0 35 109
+ 1.362716 0 1 exp 128 ------- 0 0.0 1.0 37 37
- 1.362716 0 1 exp 128 ------- 0 0.0 1.0 37 37
r 1.363303 2 1 exp 128 ------- 1 2.0 1.0 29 97
+ 1.367558 2 1 exp 128 ------- 1 2.0 1.0 36 111
- 1.367558 2 1 exp 128 ------- 1 2.0 1.0 36 111
r 1.374086 0 1 exp 128 ------- 0 0.0 1.0 34 34
r 1.378928 2 1 exp 128 ------- 1 2.0 1.0 30 99
+ 1.383183 2 1 exp 128 ------- 1 2.0 1.0 37 113
- 1.383183 2 1 exp 128 ------- 1 2.0 1.0 37 113
+ 1.393966 0 1 exp 128 ------- 0 0.0 1.0 38 38
- 1.393966 0 1 exp 128 ------- 0 0.0 1.0 38 38
r 1.394553 2 1 exp 128 ------- 1 2.0 1.0 31 101
+ 1.398808 2 1 exp 128 ------- 1 2.0 1.0 38 115
- 1.398808 2 1 exp 128 ------- 1 2.0 1.0 38 115
r 1.405336 0 1 exp 128 ------- 0 0.0 1.0 35 35
r 1.410178 2 1 exp 128 ------- 1 2.0 1.0 32 103
+ 1.414433 2 1 exp 128 ------- 1 2.0 1.0 39 117
- 1.414433 2 1 exp 128 ------- 1 2.0 1.0 39 117
+ 1.425216 0 1 exp 128 ------- 0 0.0 1.0 39 40
- 1.425216 0 1 exp 128 ------- 0 0.0 1.0 39 40
r 1.425803 2 1 exp 128 ------- 1 2.0 1.0 33 105
+ 1.430058 2 1 exp 128 ------- 1 2.0 1.0 40 119
- 1.430058 2 1 exp 128 ------- 1 2.0 1.0 40 119
r 1.436586 0 1 exp 128 ------- 0 0.0 1.0 36 36
r 1.441428 2 1 exp 128 ------- 1 2.0 1.0 34 107
+ 1.445683 2 1 exp 128 ------- 1 2.0 1.0 41 121
- 1.445683 2 1 exp 128 ------- 1 2.0 1.0 41 121
+ 1.456466 0 1 exp 128 ------- 0 0.0 1.0 40 42
- 1.456466 0 1 exp 128 ------- 0 0.0 1.0 40 42
r 1.457053 2 1 exp 128 ------- 1 2.0 1.0 35 109
+ 1.461308 2 1 exp 128 ------- 1 2.0 1.0 42 123
- 1.461308 2 1 exp 128 ------- 1 2.0 1.0 42 123
r 1.467836 0 1 exp 128 ------- 0 0.0 1.0 37 37
r 1.472678 2 1 exp 128 ------- 1 2.0 1.0 36 111
+ 1.476933 2 1 exp 128 ------- 1 2.0 1.0 43 125
- 1.476933 2 1 exp 128 ------- 1 2.0 1.0 43 125
+ 1.487716 0 1 exp 128 ------- 0 0.0 1.0 41 44
- 1.487716 0 1 exp 128 ------- 0 0.0 1.0 41 44
r 1.488303 2 1 exp 128 ------- 1 2.0 1.0 37 113
+ 1.492558 2 1 exp 128 ------- 1 2.0 1.0 44 127
- 1.492558 2 1 exp 128 ------- 1 2.0 1.0 44 127
r 1.499086 0 1 exp 128 ------- 0 0.0 1.0 38 38
r 1.503928 2 1 exp 128 ------- 1 2.0 1.0 38 115
+ 1.508183 2 1 exp 128 ------- 1 2.0 1.0 45 129
- 1.508183 2 1 exp 128 ------- 1 2.0 1.0 45 129
+ 1.518966 0 1 exp 128 ------- 0 0.0 1.0 42 46
- 1.518966 0 1 exp 128 ------- 0 0.0 1.0 42 46
r 1.519553 2 1 exp 128 ------- 1 2.0 1.0 39 117
+ 1.523808 2 1 exp 128 ------- 1 2.0 1.0 46 131
- 1.523808 2 1 exp 128 ------- 1 2.0 1.0 46 131
r 1.530336 0 1 exp 128 ------- 0 0.0 1.0 39 40
r 1.535178 2 1 exp 128 ------- 1 2.0 1.0 40 119
+ 1.539433 2 1 exp 128 ------- 1 2.0 1.0 47 133
- 1.539433 2 1 exp 128 ------- 1 2.0 1.0 47 133
+ 1.550216 0 1 exp 128 ------- 0 0.0 1.0 43 48
- 1.550216 0 1 exp 128 ------- 0 0.0 1.0 43 48
r 1.550803 2 1 exp 128 ------- 1 2.0 1.0 41 121
+ 1.555058 2 1 exp 128 ------- 1 2.0 1.0 48 135
- 1.555058 2 1 exp 128 ------- 1 2.0 1.0 48 135
r 1.561586 0 1 exp 128 ------- 0 0.0 1.0 40 42
r 1.566428 2 1 exp 128 ------- 1 2.0 1.0 42 123
+ 1.570683 2 1 exp 128 ------- 1 2.0 1.0 49 137
- 1.570683 2 1 exp 128 ------- 1 2.0 1.0 49 137
+ 1.581466 0 1 exp 128 ------- 0 0.0 1.0 44 50
- 1.581466 0 1 exp 128 ------- 0 0.0 1.0 44 50
r 1.582053 2 1 exp 128 ------- 1 2.0 1.0 43 125
+ 1.586308 2 1 exp 128 ------- 1 2.0 1.0 50 139
- 1.586308 2 1 exp 128 ------- 1 2.0 1.0 50 139
r 1.592836 0 1 exp 128 ------- 0 0.0 1.0 41 44
r 1.597678 2 1 exp 128 ------- 1 2.0 1.0 44 127
+ 1.601933 2 1 exp 128 ------- 1 2.0 1.0 51 141
- 1.601933 2 1 exp 128 ------- 1 2.0 1.0 51 141
+ 1.612716 0 1 exp 128 ------- 0 0.0 1.0 45 52
- 1.612716 0 1 exp 128 ------- 0 0.0 1.0 45 52
r 1.613303 2 1 exp 128 ------- 1 2.0 1.0 45 129
+ 1.617558 2 1 exp 128 ------- 1 2.0 1.0 52 143
- 1.617558 2 1 exp 128 ------- 1 2.0 1.0 52 143
r 1.624086 0 1 exp 128 ------- 0 0.0 1.0 42 46
r 1.628928 2 1 exp 128 ------- 1 2.0 1.0 46 131
+ 1.633183 2 1 exp 128 ------- 1 2.0 1.0 53 145
- 1.633183 2 1 exp 128 ------- 1 2.0 1.0 53 145
+ 1.643966 0 1 exp 128 ------- 0 0.0 1.0 46 54
- 1.643966 0 1 exp 128 ------- 0 0.0 1.0 46 54
r 1.644553 2 1 exp 128 ------- 1 2.0 1.0 47 133
+ 1.648808 2 1 exp 128 ------- 1 2.0 1.0 54 147
- 1.648808 2 1 exp 128 ------- 1 2.0 1.0 54 147
r 1.655336 0 1 exp 128 ------- 0 0.0 1.0 43 48
r 1.660178 2 1 exp 128 ------- 1 2.0 1.0 48 135
+ 1.664433 2 1 exp 128 ------- 1 2.0 1.0 55 149
- 1.664433 2 1 exp 128 ------- 1 2.0 1.0 55 149
+ 1.675216 0 1 exp 128 ------- 0 0.0 1.0 47 56
- 1.675216 0 1 exp 128 ------- 0 0.0 1.0 47 56
r 1.675803 2 1 exp 128 ------- 1 2.0 1.0 49 137
+ 1.680058 2 1 exp 128 ------- 1 2.0 1.0 56 151
- 1.680058 2 1 exp 128 ------- 1 2.0 1.0 56 151
r 1.686586 0 1 exp 128 ------- 0 0.0 1.0 44 50
r 1.691428 2 1 exp 128 ------- 1 2.0 1.0 50 139
+ 1.695683 2 1 exp 128 ------- 1 2.0 1.0 57 153
- 1.695683 2 1 exp 128 ------- 1 2.0 1.0 57 153
+ 1.706466 0 1 exp 128 ------- 0 0.0 1.0 48 58
- 1.706466 0 1 exp 128 ------- 0 0.0 1.0 48 58
r 1.707053 2 1 exp 128 ------- 1 2.0 1.0 51 141
+ 1.711308 2 1 exp 128 ------- 1 2.0 1.0 58 155
- 1.711308 2 1 exp 128 ------- 1 2.0 1.0 58 155
r 1.717836 0 1 exp 128 ------- 0 0.0 1.0 45 52
r 1.722678 2 1 exp 128 ------- 1 2.0 1.0 52 143
+ 1.726933 2 1 exp 128 ------- 1 2.0 1.0 59 157
- 1.726933 2 1 exp 128 ------- 1 2.0 1.0 59 157
+ 1.737716 0 1 exp 128 ------- 0 0.0 1.0 49 60
- 1.737716 0 1 exp 128 ------- 0 0.0 1.0 49 60
r 1.738303 2 1 exp 128 ------- 1 2.0 1.0 53 145
+ 1.742558 2 1 exp 128 ------- 1 2.0 1.0 60 159
- 1.742558 2 1 exp 128 ------- 1 2.0 1.0 60 159
r 1.749086 0 1 exp 128 ------- 0 0.0 1.0 46 54
r 1.753928 2 1 exp 128 ------- 1 2.0 1.0 54 147
+ 1.758183 2 1 exp 128 ------- 1 2.0 1.0 61 161
- 1.758183 2 1 exp 128 ------- 1 2.0 1.0 61 161
+ 1.768966 0 1 exp 128 ------- 0 0.0 1.0 50 62
- 1.768966 0 1 exp 128 ------- 0 0.0 1.0 50 62
r 1.769553 2 1 exp 128 ------- 1 2.0 1.0 55 149
+ 1.773808 2 1 exp 128 ------- 1 2.0 1.0 62 163
- 1.773808 2 1 exp 128 ------- 1 2.0 1.0 62 163
r 1.780336 0 1 exp 128 ------- 0 0.0 1.0 47 56
r 1.785178 2 1 exp 128 ------- 1 2.0 1.0 56 151
+ 1.789433 2 1 exp 128 ------- 1 2.0 1.0 63 165
- 1.789433 2 1 exp 128 ------- 1 2.0 1.0 63 165
+ 1.800216 0 1 exp 128 ------- 0 0.0 1.0 51 64
- 1.800216 0 1 exp 128 ------- 0 0.0 1.0 51 64
r 1.800803 2 1 exp 128 ------- 1 2.0 1.0 57 153
+ 1.805058 2 1 exp 128 ------- 1 2.0 1.0 64 167
- 1.805058 2 1 exp 128 ------- 1 2.0 1.0 64 167
r 1.811586 0 1 exp 128 ------- 0 0.0 1.0 48 58
r 1.816428 2 1 exp 128 ------- 1 2.0 1.0 58 155
+ 1.820683 2 1 exp 128 ------- 1 2.0 1.0 65 169
- 1.820683 2 1 exp 128 ------- 1 2.0 1.0 65 169
+ 1.831466 0 1 exp 128 ------- 0 0.0 1.0 52 66
- 1.831466 0 1 exp 128 ------- 0 0.0 1.0 52 66
r 1.832053 2 1 exp 128 ------- 1 2.0 1.0 59 157
+ 1.836308 2 1 exp 128 ------- 1 2.0 1.0 66 171
- 1.836308 2 1 exp 128 ------- 1 2.0 1.0 66 171
r 1.842836 0 1 exp 128 ------- 0 0.0 1.0 49 60
r 1.847678 2 1 exp 128 ------- 1 2.0 1.0 60 159
+ 1.851933 2 1 exp 128 ------- 1 2.0 1.0 67 173
- 1.851933 2 1 exp 128 ------- 1 2.0 1.0 67 173
+ 1.862716 0 1 exp 128 ------- 0 0.0 1.0 53 68
- 1.862716 0 1 exp 128 ------- 0 0.0 1.0 53 68
r 1.863303 2 1 exp 128 ------- 1 2.0 1.0 61 161
+ 1.867558 2 1 exp 128 ------- 1 2.0 1.0 68 175
- 1.867558 2 1 exp 128 ------- 1 2.0 1.0 68 175
r 1.874086 0 1 exp 128 ------- 0 0.0 1.0 50 62
r 1.878928 2 1 exp 128 ------- 1 2.0 1.0 62 163
+ 1.883183 2 1 exp 128 ------- 1 2.0 1.0 69 177
- 1.883183 2 1 exp 128 ------- 1 2.0 1.0 69 177
+ 1.893966 0 1 exp 128 ------- 0 0.0 1.0 54 70
- 1.893966 0 1 exp 128 ------- 0 0.0 1.0 54 70
r 1.894553 2 1 exp 128 ------- 1 2.0 1.0 63 165
+ 1.898808 2 1 exp 128 ------- 1 2.0 1.0 70 179
- 1.898808 2 1 exp 128 ------- 1 2.0 1.0 70 179
r 1.905336 0 1 exp 128 ------- 0 0.0 1.0 51 64
r 1.910178 2 1 exp 128 ------- 1 2.0 1.0 64 167
+ 1.914433 2 1 exp 128 ------- 1 2.0 1.0 71 181
- 1.914433 2 1 exp 128 ------- 1 2.0 1.0 71 181
+ 1.925216 0 1 exp 128 ------- 0 0.0 1.0 55 72
- 1.925216 0 1 exp 128 ------- 0 0.0 1.0 55 72
r 1.925803 2 1 exp 128 ------- 1 2.0 1.0 65 169
+ 1.930058 2 1 exp 128 ------- 1 2.0 1.0 72 183
- 1.930058 2 1 exp 128 ------- 1 2.0 1.0 72 183
r 1.936586 0 1 exp 128 ------- 0 0.0 1.0 52 66
r 1.941428 2 1 exp 128 ------- 1 2.0 1.0 66 171
+ 1.945683 2 1 exp 128 ------- 1 2.0 1.0 73 185
- 1.945683 2 1 exp 128 ------- 1 2.0 1.0 73 185
+ 1.956466 0 1 exp 128 ------- 0 0.0 1.0 56 74
- 1.956466 0 1 exp 128 ------- 0 0.0 1.0 56 74
r 1.957053 2 1 exp 128 ------- 1 2.0 1.0 67 173
+ 1.961308 2 1 exp 128 ------- 1 2.0 1.0 74 187
- 1.961308 2 1 exp 128 ------- 1 2.0 1.0 74 187
r 1.967836 0 1 exp 128 ------- 0 0.0 1.0 53 68
r 1.972678 2 1 exp 128 ------- 1 2.0 1.0 68 175
+ 1.976933 2 1 exp 128 ------- 1 2.0 1.0 75 189
- 1.976933 2 1 exp 128 ------- 1 2.0 1.0 75 189
+ 1.987716 0 1 exp 128 ------- 0 0.0 1.0 57 76
- 1.987716 0 1 exp 128 ------- 0 0.0 1.0 57 76
r 1.988303 2 1 exp 128 ------- 1 2.0 1.0 69 177
+ 1.992558 2 1 exp 128 ------- 1 2.0 1.0 76 191
- 1.992558 2 1 exp 128 ------- 1 2.0 1.0 76 191
r 1.999086 0 1 exp 128 ------- 0 0.0 1.0 54 70
r 2.003928 2 1 exp 128 ------- 1 2.0 1.0 70 179
+ 2.008183 2 1 exp 128 ------- 1 2.0 1.0 77 193
- 2.008183 2 1 exp 128 ------- 1 2.0 1.0 77 193
+ 2.018966 0 1 exp 128 ------- 0 0.0 1.0 58 78
- 2.018966 0 1 exp 128 ------- 0 0.0 1.0 58 78
r 2.019553 2 1 exp 128 ------- 1 2.0 1.0 71 181
+ 2.023808 2 1 exp 128 ------- 1 2.0 1.0 78 195
- 2.023808 2 1 exp 128 ------- 1 2.0 1.0 78 195
r 2.030336 0 1 exp 128 ------- 0 0.0 1.0 55 72
r 2.035178 2 1 exp 128 ------- 1 2.0 1.0 72 183
+ 2.039433 2 1 exp 128 ------- 1 2.0 1.0 79 197
- 2.039433 2 1 exp 128 ------- 1 2.0 1.0 79 197
+ 2.050216 0 1 exp 128 ------- 0 0.0 1.0 59 80
- 2.050216 0 1 exp 128 ------- 0 0.0 1.0 59 80
r 2.050803 2 1 exp 128 ------- 1 2.0 1.0 73 185
+ 2.055058 2 1 exp 128 ------- 1 2.0 1.0 80 199
- 2.055058 2 1 exp 128 ------- 1 2.0 1.0 80 199
r 2.061586 0 1 exp 128 ------- 0 0.0 1.0 56 74
r 2.066428 2 1 exp 128 ------- 1 2.0 1.0 74 187
+ 2.070683 2 1 exp 128 ------- 1 2.0 1.0 81 201
- 2.070683 2 1 exp 128 ------- 1 2.0 1.0 81 201
+ 2.081466 0 1 exp 128 ------- 0 0.0 1.0 60 82
- 2.081466 0 1 exp 128 ------- 0 0.0 1.0 60 82
r 2.082053 2 1 exp 128 ------- 1 2.0 1.0 75 189
+ 2.086308 2 1 exp 128 ------- 1 2.0 1.0 82 203
- 2.086308 2 1 exp 128 ------- 1 2.0 1.0 82 203
r 2.092836 0 1 exp 128 ------- 0 0.0 1.0 57 76
r 2.097678 2 1 exp 128 ------- 1 2.0 1.0 76 191
+ 2.101933 2 1 exp 128 ------- 1 2.0 1.0 83 205
- 2.101933 2 1 exp 128 ------- 1 2.0 1.0 83 205
+ 2.112716 0 1 exp 128 ------- 0 0.0 1.0 61 84
- 2.112716 0 1 exp 128 ------- 0 0.0 1.0 61 84
r 2.113303 2 1 exp 128 ------- 1 2.0 1.0 77 193
+ 2.117558 2 1 exp 128 ------- 1 2.0 1.0 84 207
- 2.117558 2 1 exp 128 ------- 1 2.0 1.0 84 207
r 2.124086 0 1 exp 128 ------- 0 0.0 1.0 58 78
r 2.128928 2 1 exp 128 ------- 1 2.0 1.0 78 195
+ 2.143966 0 1 exp 128 ------- 0 0.0 1.0 62 86
- 2.143966 0 1 exp 128 ------- 0 0.0 1.0 62 86
r 2.144553 2 1 exp 128 ------- 1 2.0 1.0 79 197
r 2.155336 0 1 exp 128 ------- 0 0.0 1.0 59 80
r 2.160178 2 1 exp 128 ------- 1 2.0 1.0 80 199
+ 2.175216 0 1 exp 128 ------- 0 0.0 1.0 63 88
- 2.175216 0 1 exp 128 ------- 0 0.0 1.0 63 88
r 2.175803 2 1 exp 128 ------- 1 2.0 1.0 81 201
r 2.186586 0 1 exp 128 ------- 0 0.0 1.0 60 82
r 2.191428 2 1 exp 128 ------- 1 2.0 1.0 82 203
+ 2.206048 2 1 exp 128 ------- 1 2.0 1.0 85 213
- 2.206048 2 1 exp 128 ------- 1 2.0 1.0 85 213
+ 2.206466 0 1 exp 128 ------- 0 0.0 1.0 64 90
- 2.206466 0 1 exp 128 ------- 0 0.0 1.0 64 90
r 2.207053 2 1 exp 128 ------- 1 2.0 1.0 83 205
r 2.217836 0 1 exp 128 ------- 0 0.0 1.0 61 84
+ 2.221673 2 1 exp 128 ------- 1 2.0 1.0 86 215
- 2.221673 2 1 exp 128 ------- 1 2.0 1.0 86 215
r 2.222678 2 1 exp 128 ------- 1 2.0 1.0 84 207
+ 2.237298 2 1 exp 128 ------- 1 2.0 1.0 87 217
- 2.237298 2 1 exp 128 ------- 1 2.0 1.0 87 217
+ 2.237716 0 1 exp 128 ------- 0 0.0 1.0 65 92
- 2.237716 0 1 exp 128 ------- 0 0.0 1.0 65 92
r 2.249086 0 1 exp 128 ------- 0 0.0 1.0 62 86
+ 2.252923 2 1 exp 128 ------- 1 2.0 1.0 88 219
- 2.252923 2 1 exp 128 ------- 1 2.0 1.0 88 219
+ 2.268548 2 1 exp 128 ------- 1 2.0 1.0 89 221
- 2.268548 2 1 exp 128 ------- 1 2.0 1.0 89 221
+ 2.268966 0 1 exp 128 ------- 0 0.0 1.0 66 94
- 2.268966 0 1 exp 128 ------- 0 0.0 1.0 66 94
r 2.280336 0 1 exp 128 ------- 0 0.0 1.0 63 88
+ 2.284173 2 1 exp 128 ------- 1 2.0 1.0 90 223
- 2.284173 2 1 exp 128 ------- 1 2.0 1.0 90 223
+ 2.299798 2 1 exp 128 ------- 1 2.0 1.0 91 225
- 2.299798 2 1 exp 128 ------- 1 2.0 1.0 91 225
+ 2.300216 0 1 exp 128 ------- 0 0.0 1.0 67 96
- 2.300216 0 1 exp 128 ------- 0 0.0 1.0 67 96
r 2.311168 2 1 exp 128 ------- 1 2.0 1.0 85 213
r 2.311586 0 1 exp 128 ------- 0 0.0 1.0 64 90
+ 2.315423 2 1 exp 128 ------- 1 2.0 1.0 92 227
- 2.315423 2 1 exp 128 ------- 1 2.0 1.0 92 227
r 2.326793 2 1 exp 128 ------- 1 2.0 1.0 86 215
+ 2.331048 2 1 exp 128 ------- 1 2.0 1.0 93 229
- 2.331048 2 1 exp 128 ------- 1 2.0 1.0 93 229
+ 2.331466 0 1 exp 128 ------- 0 0.0 1.0 68 98
- 2.331466 0 1 exp 128 ------- 0 0.0 1.0 68 98
r 2.342418 2 1 exp 128 ------- 1 2.0 1.0 87 217
r 2.342836 0 1 exp 128 ------- 0 0.0 1.0 65 92
+ 2.346673 2 1 exp 128 ------- 1 2.0 1.0 94 231
- 2.346673 2 1 exp 128 ------- 1 2.0 1.0 94 231
r 2.358043 2 1 exp 128 ------- 1 2.0 1.0 88 219
+ 2.362298 2 1 exp 128 ------- 1 2.0 1.0 95 233
- 2.362298 2 1 exp 128 ------- 1 2.0 1.0 95 233
+ 2.362716 0 1 exp 128 ------- 0 0.0 1.0 69 100
- 2.362716 0 1 exp 128 ------- 0 0.0 1.0 69 100
r 2.373668 2 1 exp 128 ------- 1 2.0 1.0 89 221
r 2.374086 0 1 exp 128 ------- 0 0.0 1.0 66 94
+ 2.377923 2 1 exp 128 ------- 1 2.0 1.0 96 235
- 2.377923 2 1 exp 128 ------- 1 2.0 1.0 96 235
r 2.389293 2 1 exp 128 ------- 1 2.0 1.0 90 223
+ 2.393548 2 1 exp 128 ------- 1 2.0 1.0 97 237
- 2.393548 2 1 exp 128 ------- 1 2.0 1.0 97 237
+ 2.393966 0 1 exp 128 ------- 0 0.0 1.0 70 102
- 2.393966 0 1 exp 128 ------- 0 0.0 1.0 70 102
r 2.404918 2 1 exp 128 ------- 1 2.0 1.0 91 225
r 2.405336 0 1 exp 128 ------- 0 0.0 1.0 67 96
+ 2.409173 2 1 exp 128 ------- 1 2.0 1.0 98 239
- 2.409173 2 1 exp 128 ------- 1 2.0 1.0 98 239
r 2.420543 2 1 exp 128 ------- 1 2.0 1.0 92 227
+ 2.424798 2 1 exp 128 ------- 1 2.0 1.0 99 241
- 2.424798 2 1 exp 128 ------- 1 2.0 1.0 99 241
+ 2.425216 0 1 exp 128 ------- 0 0.0 1.0 71 104
- 2.425216 0 1 exp 128 ------- 0 0.0 1.0 71 104
r 2.436168 2 1 exp 128 ------- 1 2.0 1.0 93 229
r 2.436586 0 1 exp 128 ------- 0 0.0 1.0 68 98
+ 2.440423 2 1 exp 128 ------- 1 2.0 1.0 100 243
- 2.440423 2 1 exp 128 ------- 1 2.0 1.0 100 243
r 2.451793 2 1 exp 128 ------- 1 2.0 1.0 94 231
+ 2.456466 0 1 exp 128 ------- 0 0.0 1.0 72 106
- 2.456466 0 1 exp 128 ------- 0 0.0 1.0 72 106
r 2.467418 2 1 exp 128 ------- 1 2.0 1.0 95 233
r 2.467836 0 1 exp 128 ------- 0 0.0 1.0 69 100
r 2.483043 2 1 exp 128 ------- 1 2.0 1.0 96 235
+ 2.487716 0 1 exp 128 ------- 0 0.0 1.0 73 108
- 2.487716 0 1 exp 128 ------- 0 0.0 1.0 73 108
r 2.498668 2 1 exp 128 ------- 1 2.0 1.0 97 237
r 2.499086 0 1 exp 128 ------- 0 0.0 1.0 70 102
r 2.514293 2 1 exp 128 ------- 1 2.0 1.0 98 239
+ 2.518966 0 1 exp 128 ------- 0 0.0 1.0 74 110
- 2.518966 0 1 exp 128 ------- 0 0.0 1.0 74 110
+ 2.521944 2 1 exp 128 ------- 1 2.0 1.0 101 250
- 2.521944 2 1 exp 128 ------- 1 2.0 1.0 101 250
r 2.529918 2 1 exp 128 ------- 1 2.0 1.0 99 241
r 2.530336 0 1 exp 128 ------- 0 0.0 1.0 71 104
+ 2.537569 2 1 exp 128 ------- 1 2.0 1.0 102 252
- 2.537569 2 1 exp 128 ------- 1 2.0 1.0 102 252
r 2.545543 2 1 exp 128 ------- 1 2.0 1.0 100 243
+ 2.550216 0 1 exp 128 ------- 0 0.0 1.0 75 112
- 2.550216 0 1 exp 128 ------- 0 0.0 1.0 75 112
+ 2.553194 2 1 exp 128 ------- 1 2.0 1.0 103 254
- 2.553194 2 1 exp 128 ------- 1 2.0 1.0 103 254
r 2.561586 0 1 exp 128 ------- 0 0.0 1.0 72 106
+ 2.568819 2 1 exp 128 ------- 1 2.0 1.0 104 256
- 2.568819 2 1 exp 128 ------- 1 2.0 1.0 104 256
+ 2.581466 0 1 exp 128 ------- 0 0.0 1.0 76 114
- 2.581466 0 1 exp 128 ------- 0 0.0 1.0 76 114
+ 2.584444 2 1 exp 128 ------- 1 2.0 1.0 105 258
- 2.584444 2 1 exp 128 ------- 1 2.0 1.0 105 258
r 2.592836 0 1 exp 128 ------- 0 0.0 1.0 73 108
+ 2.600069 2 1 exp 128 ------- 1 2.0 1.0 106 260
- 2.600069 2 1 exp 128 ------- 1 2.0 1.0 106 260
+ 2.612716 0 1 exp 128 ------- 0 0.0 1.0 77 116
- 2.612716 0 1 exp 128 ------- 0 0.0 1.0 77 116
+ 2.615694 2 1 exp 128 ------- 1 2.0 1.0 107 262
- 2.615694 2 1 exp 128 ------- 1 2.0 1.0 107 262
r 2.624086 0 1 exp 128 ------- 0 0.0 1.0 74 110
r 2.627064 2 1 exp 128 ------- 1 2.0 1.0 101 250
+ 2.631319 2 1 exp 128 ------- 1 2.0 1.0 108 264
- 2.631319 2 1 exp 128 ------- 1 2.0 1.0 108 264
r 2.642689 2 1 exp 128 ------- 1 2.0 1.0 102 252
+ 2.643966 0 1 exp 128 ------- 0 0.0 1.0 78 118
- 2.643966 0 1 exp 128 ------- 0 0.0 1.0 78 118
+ 2.646944 2 1 exp 128 ------- 1 2.0 1.0 109 266
- 2.646944 2 1 exp 128 ------- 1 2.0 1.0 109 266
r 2.655336 0 1 exp 128 ------- 0 0.0 1.0 75 112
r 2.658314 2 1 exp 128 ------- 1 2.0 1.0 103 254
+ 2.662569 2 1 exp 128 ------- 1 2.0 1.0 110 268
- 2.662569 2 1 exp 128 ------- 1 2.0 1.0 110 268
r 2.673939 2 1 exp 128 ------- 1 2.0 1.0 104 256
+ 2.675216 0 1 exp 128 ------- 0 0.0 1.0 79 120
- 2.675216 0 1 exp 128 ------- 0 0.0 1.0 79 120
+ 2.678194 2 1 exp 128 ------- 1 2.0 1.0 111 270
- 2.678194 2 1 exp 128 ------- 1 2.0 1.0 111 270
r 2.686586 0 1 exp 128 ------- 0 0.0 1.0 76 114
r 2.689564 2 1 exp 128 ------- 1 2.0 1.0 105 258
+ 2.693819 2 1 exp 128 ------- 1 2.0 1.0 112 272
- 2.693819 2 1 exp 128 ------- 1 2.0 1.0 112 272
r 2.705189 2 1 exp 128 ------- 1 2.0 1.0 106 260
+ 2.706466 0 1 exp 128 ------- 0 0.0 1.0 80 122
- 2.706466 0 1 exp 128 ------- 0 0.0 1.0 80 122
+ 2.709444 2 1 exp 128 ------- 1 2.0 1.0 113 273
- 2.709444 2 1 exp 128 ------- 1 2.0 1.0 113 273
r 2.717836 0 1 exp 128 ------- 0 0.0 1.0 77 116
r 2.720814 2 1 exp 128 ------- 1 2.0 1.0 107 262
+ 2.725069 2 1 exp 128 ------- 1 2.0 1.0 114 274
- 2.725069 2 1 exp 128 ------- 1 2.0 1.0 114 274
r 2.736439 2 1 exp 128 ------- 1 2.0 1.0 108 264
+ 2.737716 0 1 exp 128 ------- 0 0.0 1.0 81 124
- 2.737716 0 1 exp 128 ------- 0 0.0 1.0 81 124
+ 2.740694 2 1 exp 128 ------- 1 2.0 1.0 115 275
- 2.740694 2 1 exp 128 ------- 1 2.0 1.0 115 275
r 2.749086 0 1 exp 128 ------- 0 0.0 1.0 78 118
r 2.752064 2 1 exp 128 ------- 1 2.0 1.0 109 266
+ 2.756319 2 1 exp 128 ------- 1 2.0 1.0 116 276
- 2.756319 2 1 exp 128 ------- 1 2.0 1.0 116 276
r 2.767689 2 1 exp 128 ------- 1 2.0 1.0 110 268
+ 2.768966 0 1 exp 128 ------- 0 0.0 1.0 82 126
- 2.768966 0 1 exp 128 ------- 0 0.0 1.0 82 126
+ 2.771944 2 1 exp 128 ------- 1 2.0 1.0 117 277
- 2.771944 2 1 exp 128 ------- 1 2.0 1.0 117 277
r 2.780336 0 1 exp 128 ------- 0 0.0 1.0 79 120
r 2.783314 2 1 exp 128 ------- 1 2.0 1.0 111 270
+ 2.787569 2 1 exp 128 ------- 1 2.0 1.0 118 278
- 2.787569 2 1 exp 128 ------- 1 2.0 1.0 118 278
r 2.798939 2 1 exp 128 ------- 1 2.0 1.0 112 272
+ 2.800216 0 1 exp 128 ------- 0 0.0 1.0 83 128
- 2.800216 0 1 exp 128 ------- 0 0.0 1.0 83 128
+ 2.803194 2 1 exp 128 ------- 1 2.0 1.0 119 279
- 2.803194 2 1 exp 128 ------- 1 2.0 1.0 119 279
r 2.811586 0 1 exp 128 ------- 0 0.0 1.0 80 122
r 2.814564 2 1 exp 128 ------- 1 2.0 1.0 113 273
+ 2.818819 2 1 exp 128 ------- 1 2.0 1.0 120 280
- 2.818819 2 1 exp 128 ------- 1 2.0 1.0 120 280
r 2.830189 2 1 exp 128 ------- 1 2.0 1.0 114 274
+ 2.831466 0 1 exp 128 ------- 0 0.0 1.0 84 130
- 2.831466 0 1 exp 128 ------- 0 0.0 1.0 84 130
+ 2.834444 2 1 exp 128 ------- 1 2.0 1.0 121 281
- 2.834444 2 1 exp 128 ------- 1 2.0 1.0 121 281
r 2.842836 0 1 exp 128 ------- 0 0.0 1.0 81 124
r 2.845814 2 1 exp 128 ------- 1 2.0 1.0 115 275
+ 2.850069 2 1 exp 128 ------- 1 2.0 1.0 122 282
- 2.850069 2 1 exp 128 ------- 1 2.0 1.0 122 282
r 2.861439 2 1 exp 128 ------- 1 2.0 1.0 116 276
+ 2.862716 0 1 exp 128 ------- 0 0.0 1.0 85 132
- 2.862716 0 1 exp 128 ------- 0 0.0 1.0 85 132
+ 2.865694 2 1 exp 128 ------- 1 2.0 1.0 123 284
- 2.865694 2 1 exp 128 ------- 1 2.0 1.0 123 284
r 2.874086 0 1 exp 128 ------- 0 0.0 1.0 82 126
r 2.877064 2 1 exp 128 ------- 1 2.0 1.0 117 277
r 2.892689 2 1 exp 128 ------- 1 2.0 1.0 118 278
+ 2.893966 0 1 exp 128 ------- 0 0.0 1.0 86 134
- 2.893966 0 1 exp 128 ------- 0 0.0 1.0 86 134
r 2.905336 0 1 exp 128 ------- 0 0.0 1.0 83 128
r 2.908314 2 1 exp 128 ------- 1 2.0 1.0 119 279
r 2.923939 2 1 exp 128 ------- 1 2.0 1.0 120 280
+ 2.925216 0 1 exp 128 ------- 0 0.0 1.0 87 136
- 2.925216 0 1 exp 128 ------- 0 0.0 1.0 87 136
r 2.936586 0 1 exp 128 ------- 0 0.0 1.0 84 130
+ 2.93941 2 1 exp 128 ------- 1 2.0 1.0 124 290